<?xml version="1.0"?>
<VTKFile type="UnstructuredGrid" version="0.1" byte_order="LittleEndian" header_type="UInt32">
  <UnstructuredGrid>
    <FieldData>
      <DataArray type="Int8" Name="IntegrationPointMetaData" NumberOfTuples="97" format="ascii" RangeMin="34" RangeMax="125">
        123 34 105 110 116 101
        103 114 97 116 105 111
        110 95 112 111 105 110
        116 95 97 114 114 97
        121 115 34 58 91 123
        34 105 110 116 101 103
        114 97 116 105 111 110
        95 111 114 100 101 114
        34 58 50 44 34 110
        97 109 101 34 58 34
        115 105 103 109 97 95
        105 112 34 44 34 110
        117 109 98 101 114 95
        111 102 95 99 111 109
        112 111 110 101 110 116
        115 34 58 54 125 93
        125
      </DataArray>
      <DataArray type="Int8" Name="OGS_VERSION" NumberOfTuples="19" format="ascii" RangeMin="45" RangeMax="103">
        54 46 50 46 48 45
        56 49 45 103 51 49
        57 56 49 54 48 57
        57
      </DataArray>
      <DataArray type="Float64" Name="sigma_ip" NumberOfComponents="6" NumberOfTuples="3456" format="ascii" RangeMin="1999999.3179761567" RangeMax="2000000.475676638">
        1414213.3396271397 -0.014379357773577794 -1414213.6232695542 0.12629764804221297 -0.14589789333373315 0.2596779411616311
        1414214.15014779 0.19235287120682187 -1414213.2213037307 0.2956183621823836 -0.1795831145744958 -0.13893810673152757
        1414214.9590709263 0.3941066656843759 -1414212.838382578 0.45666458048358477 -0.2084202661491138 -0.5314745758233259
        1414213.457544194 0.0032995888323057443 -1414213.6279259995 0.08866120856816567 -0.09561845174285946 0.22762224387469696
        1414214.160915872 0.18655715050408617 -1414213.24708067 0.2241165802426992 -0.10824582363506113 -0.1293703396718978
        1414214.8917965672 0.37628535422845744 -1414212.8559622942 0.35383455205505376 -0.11080627851482205 -0.49804639250431576
        1414213.5424998845 0.017721273412462324 -1414213.6221969838 0.06242698107935614 -0.05909829451836291 0.20101565213310446
        1414214.179135395 0.19088344008196145 -1414213.2346109923 0.17211552780584732 -0.04970282108981885 -0.1351111735915868
        1414214.8723864565 0.3819653255632147 -1414212.807434235 0.2786037716347668 -0.025021582314721142 -0.5006845182584729
        1414213.335307284 -0.010544044896960258 -1414213.6701795757 0.12456721994381739 -0.10841468202016975 0.22213627636740435
        1414213.9002334906 0.059970565751427785 -1414213.2905418845 0.19908071195733026 -0.1400967661195167 -0.17446327421408175
        1414214.472771559 0.12174605039763264 -1414212.9419822842 0.27146377956029366 -0.17580763585788367 -0.5647995006085452
        1414213.448102657 0.0014355154999066144 -1414213.680363718 0.07707075426949908 -0.05538358620662935 0.19200157922211356
        1414213.9714803495 0.06879124508122914 -1414213.3129144276 0.157349924457954 -0.08124057223630543 -0.17661427060325802
        1414214.5315764374 0.1388569264963735 -1414212.9472255092 0.23803576687119446 -0.10590749614711506 -0.5567298427390228
        1414213.5174285516 0.012744948820909485 -1414213.6769138337 0.04645790451832743 -0.020357806823043847 0.16466132216769264
        1414214.039670535 0.09032106713857502 -1414213.2937917914 0.1406012713871359 -0.03942469881086428 -0.19672853344165953
        1414214.6277374458 0.1820562151260674 -1414212.8831123994 0.23768840703374683 -0.05208267985179699 -0.5873811606473452
        1414213.4092456962 0.025105623732088134 -1414213.6524043703 0.09193277923470931 -0.08908078991166893 0.2197362039161708
        1414213.7820501323 0.011189598881173879 -1414213.2612030534 0.10743714777214332 -0.09680743878781664 -0.16488709710377034
        1414214.1716758057 -0.015226241521304473 -1414212.9131132455 0.12695516085790587 -0.1174397276203322 -0.5430633245688901
        1414213.5017016162 0.045994310290552676 -1414213.6724829006 0.03907053587937695 -0.03647666414637522 0.1827687322176527
        1414213.8985579938 0.049235188285820186 -1414213.2845378958 0.09997160249146957 -0.05361096656101439 -0.1875106318424185
        1414214.341342141 0.0514253260625992 -1414212.9103866806 0.16742341226285928 -0.07843206026863626 -0.5691059711036861
        1414213.5401799416 0.06880000239470974 -1414213.6756788432 0.008573311150329192 -0.006123889014883819 0.14594103432720715
        1414214.0015010657 0.10257705248659477 -1414213.2631289975 0.12296959524799062 -0.03170084825496711 -0.2307520994108419
        1414214.5378564966 0.14675244511454366 -1414212.8350552146 0.24645372103359964 -0.05974575012464796 -0.6365242551459063
        1414211.4555295103 -0.4965082152339164 -1414214.7338331817 -0.40419377911188376 0.01890618547822195 1.2747616308527214
        1414212.169434605 -0.3007405094394926 -1414214.293225292 -0.19925289582756806 -0.05849191439099233 0.8933013276914243
        1414212.9119888071 -0.09798750936170109 -1414213.8460871093 0.003675046563241599 -0.12862378603595243 0.5018941499997762
        1414211.8153232778 -0.43174297982477583 -1414214.6880053296 -0.34468670099272464 0.0038315143511144516 1.1452814498824349
        1414212.4559357797 -0.2471413130988367 -1414214.2458086885 -0.17454516059650974 -0.04398670760872561 0.7875550633769197
        1414213.0975693932 -0.0670815470512025 -1414213.8282766487 -0.010189705928676681 -0.08857442285640763 0.4377660543050156
        1414212.0415046841 -0.4036383285711054 -1414214.7054836382 -0.2970791469270799 -0.025777336306206527 1.0750003945435214
        1414212.6479818623 -0.21685011498630047 -1414214.2327177355 -0.15275211322937168 -0.04395508125568393 0.720291621865596
        1414213.2278521503 -0.04613100292044692 -1414213.8158113342 -0.01798430762537929 -0.06293804042887295 0.39140447894538516
        1414211.9988120697 -0.11411793367005885 -1414214.6045322563 -0.12476567751733598 -0.019909080604523056 1.2611350784831379
        1414212.5262295804 -0.0477101611031685 -1414214.232433172 -0.032705423575262266 -0.07729221332095637 0.8731018114920168
        1414213.0741788938 0.0270067707169801 -1414213.8405333583 0.051124215159406274 -0.11850337438299341 0.4761285775365046
        1414212.1596991615 -0.12620621101814322 -1414214.575582189 -0.15970922996351994 -0.004596544106630897 1.1713099846779094
        1414212.6869042595 -0.04661639212281443 -1414214.2013258012 -0.06919145255381326 -0.04110484999952567 0.791262954296995
        1414213.2070131577 0.029755386931356043 -1414213.8384635877 0.00932256308493307 -0.0654769077257538 0.420160207022336
        1414212.1792767672 -0.1686542442184873 -1414214.6039061707 -0.20231113429347325 -0.009285049097035834 1.1388840336087043
        1414212.7454267184 -0.06252979568671435 -1414214.1985119751 -0.10435100068389822 -0.024857932769716484 0.7461069357801783
        1414213.2768524715 0.028849413560237736 -1414213.83570685 -0.022167769646574284 -0.03233028880000985 0.38015837301672484
        1414212.3844272774 0.027830041712149978 -1414214.590372525 0.07862976504346417 -0.08804586120486602 1.2301557608191742
        1414212.7756548198 0.01988219504710287 -1414214.2567214728 0.09305319903708564 -0.1044798276300917 0.8429244345556374
        1414213.1792968484 0.02156736553297378 -1414213.889999263 0.09302834038131638 -0.09583608094641252 0.44776004231336936
        1414212.338776411 -0.03707872310769744 -1414214.5747169496 -0.04944145119540946 -0.04895305236241233 1.173790968279183
        1414212.8028717132 -0.0074964458763133734 -1414214.2383400558 -0.003303632152868965 -0.05321724782438283 0.7787981946650246
        1414213.2517535063 0.020191655697999522 -1414213.900086899 0.02461274989931331 -0.03643945333590585 0.3937566055800964
        1414212.1441189325 -0.12604641867801547 -1414214.6103033137 -0.18092985323984415 -0.03532815289323993 1.1730253350705224
        1414212.7202392607 -0.04558142967289314 -1414214.242220064 -0.0940928120532919 -0.027361977220831977 0.7495548109019745
        1414213.2535180796 0.021462179021909833 -1414213.9034554577 -0.02925035236270147 -0.0023895361558410114 0.35391972418871065
        1414213.5720680633 0.02656241349177435 -1414213.613987218 0.053286617256492454 -0.04621344020230053 0.18524631693180876
        1414214.21288158 0.21500152323278598 -1414213.20023734 0.16398438722809808 -0.02004005827476155 -0.1493051843331359
        1414214.9213167534 0.4273458781244699 -1414212.7326865408 0.2720033611309957 0.025391556158982566 -0.5202142884473789
        1414213.6132226416 0.03721255256095901 -1414213.5851457168 0.045709909992143485 -0.028316991633909244 0.1637541759966526
        1414214.2623934937 0.2361360385257285 -1414213.134374165 0.14872518509745453 0.014205918800586378 -0.18337281639133474
        1414214.9912460651 0.46317619318142533 -1414212.6203710071 0.2506472293159 0.07725443813784366 -0.5733913611312322
        1414213.6423331925 0.046537421992979944 -1414213.5559138767 0.04126456523500351 -0.01501193241501262 0.14518473102213916
        1414214.305982951 0.25699695729417726 -1414213.0688755785 0.13941781274100518 0.04175246925412096 -0.21614939915289832
        1414215.0613744962 0.4997845849429723 -1414212.5091749853 0.2380633964352991 0.12030985902138687 -0.6269090384213024
        1414213.5411873234 0.0170444542018231 -1414213.673428886 0.03659937617753983 -0.010257725591499137 0.14801722463921888
        1414214.095357446 0.1301321058126632 -1414213.2537863685 0.15384448883155752 -0.010129804555594446 -0.20962514210321023
        1414214.7230144008 0.2682730193482712 -1414212.7822916973 0.2722243661983328 0.007544620259423959 -0.6028942373297483
        1414213.5849920725 0.019859092659316957 -1414213.6481689354 0.027454593191755333 0.010053794113712128 0.12770179580866334
        1414214.1334011315 0.14395704766502604 -1414213.2026151575 0.14409832538830702 0.02518316147811077 -0.2306484785592393
        1414214.7673570823 0.2973196866514627 -1414212.6957785373 0.2634623867385962 0.05912640803036288 -0.6311594338876026
[...]
      <PointData>
        <DataArray type="Float64" Name="MaterialForces" NumberOfComponents="3" format="ascii" RangeMin="5.248405532432624e-13" RangeMax="626.448246309859">
          1.1652900866465643e-12 3.367972567502875e-12 -3.552713678800501e-12 -177.18581291348147 1.552535877635819e-12 177.18578413217662
          -25.94824268261137 88.59286906537993 151.23755187711512 125.28936190315838 177.18571337069156 125.2893312398599
          156.6116660583346 -221.48244302696367 156.6118438589263 -10.287074247328217 -110.74120250839206 166.8987882470127
          26.17880029088351 -11.074165046968918 114.77171435062863 140.95050803269604 -22.14836666561824 140.95060840399483
          -156.61182489365245 221.48239711724122 -156.61160421912473 -166.89879284898876 110.7411676510092 10.287100838000175
          -52.12706638769703 99.66701977599493 36.46587408386243 -15.661220147901801 199.33403371156612 -15.66114784363944
          2.042810365310288e-12 7.389644451905042e-13 -7.673861546209082e-13 -177.18581800602203 3.808509063674137e-12 177.18578922471588
          156.61166202161687 -221.48245476775116 156.61185725972905 -10.287077958938532 -110.74120816568583 166.89879697894793
          -156.61183952527065 221.4824052995888 -156.61162534563917 -166.89880233441033 110.74117934960549 10.287084043748305
          -6.643574579356937e-13 -4.2810199829546036e-13 1.8616219676914625e-12 -177.18581802669482 3.33244543071487e-12 177.18578924538866
          156.61165623312993 -221.48245055383126 156.6118635462218 -10.28707833924378 -110.74120494117398 166.89879699340486
          -156.61184509240235 221.48241815869022 -156.61163757710645 -166.8988088889778 110.74118873752377 10.287079706098933
          -3.6699532302009175e-12 -1.1084466677857563e-12 4.263256414560601e-12 -177.18581685606554 1.765698698363849e-12 177.18578807475913
          156.6116489264071 -221.48244292875077 156.6118654432127 -10.287079468137826 -110.7412007672482 166.89879495403585
          -156.61184524778326 221.48242641247484 -156.61164500338012 -166.8988107633345 110.74119331886773 10.287077395307051
          4.760636329592671e-12 1.291411422243982e-12 -1.9895196601282805e-12 125.28943568482765 177.18562583431253 125.28941241108849
          156.6117384435566 -221.482553445356 156.6118999479006 140.9505762707907 -22.148456228709 140.95066715542765
          -156.61190562038945 221.48253211488108 -156.61170788854858 -15.661224723539789 199.33408113967505 -15.661154958825051
          1.4743761767022079e-12 8.277822871605167e-13 1.1795009413617663e-12 156.61173973739204 -221.48255687088803 156.61190940965238
          -156.6119075788351 221.48253182743537 -156.61172229653613 3.9825920339353615e-12 -1.566746732351021e-12 -2.7284841053187847e-12
          156.6117379691047 -221.4825532072606 156.61191457870012 -156.61190831767968 221.48253909885318 -156.61173382343782
          1.637801005927031e-12 -1.545430450278218e-12 -2.4158453015843406e-12 156.6117327073258 -221.48254652582008 156.61191681167605
          -156.61190693628538 221.48254609855846 -156.61174097221507 -5.293543381412746e-13 -4.359179683888215e-12 -2.984279490192421e-13
          125.2894968292043 177.18554875907083 125.28947892565097 156.6118162349822 -221.48265873479522 156.61195523430172
          140.9506463685146 -22.14854546582857 140.95072534531863 -156.61196777861048 221.48265060520984 -156.61180181119528
          -15.661226189479947 199.33411103933148 -15.66116893735677 1.8545165403338615e-12 -1.4690471061840071e-12 2.6716406864579767e-12
          156.61181603859904 -221.48265340533715 156.6119611951081 -156.6119632279495 221.4826439892664 -156.61180835129358
          1.0906830993917538e-12 -1.2292389328649733e-12 -2.3163693185779266e-12 156.61181492117996 -221.48264981494748 156.61196528090107
          -156.6119603475869 221.4826435413631 -156.61181594335596 -1.1937117960769683e-12 3.339550858072471e-13 -1.4495071809506044e-12
          156.611811105372 -221.48264576743597 156.6119678528059 -156.61195768699304 221.48264645245547 -156.61182139133814
          1.9539925233402755e-13 -7.153388992264809e-12 -3.055333763768431e-12 125.2895454632241 177.18548088717404 125.28953255617184
          156.61188528599075 -221.48274662186222 156.61199986875562 140.9507068459456 -22.148622453597717 140.95077293814566
          -156.61201320692976 221.48274731545828 -156.61188112912382 -15.661226279814286 199.33412967667306 -15.661180756539032
          9.592326932761353e-13 -3.90087961932295e-12 4.547473508864641e-13 156.6118832099649 -221.482735249412 156.61200298530937
          -156.61200567228906 221.48273675700673 -156.61188258508042 -3.780087354243733e-12 -1.0906830993917538e-12 5.542233338928781e-13
          156.61188172412272 -221.48273097545717 156.61200590048605 -156.61200106354016 221.48273059793246 -156.61188639520714
          -2.234656903965515e-12 -1.156408302449563e-12 -8.242295734817162e-13 156.61187902824975 -221.4827290456806 156.61200835750935
          -156.6119979307565 221.4827297210481 -156.61188980019543 6.039613253960852e-13 -2.97895041967422e-12 6.821210263296962e-13
          -177.18581572768235 2.8066438062523957e-13 177.18578694637495 156.61163929229232 -221.48243198682985 156.61186294003107
          -10.287081846533834 -110.74119450015458 166.8987906155327 -156.6118408333778 221.48243152122302 -156.6116504367583
          -166.89881031197538 110.74119596483476 10.287076179140165 1.8971491044794675e-12 -4.000355602329364e-12 1.3216094885137863e-12
          -177.18581274810057 -1.5347723092418164e-12 177.18578396679357 156.61162417818804 -221.48241658381951 156.61185504504357
          -10.287086481781884 -110.74118301396805 166.8987810540404 -156.61183149212664 221.482433793464 -156.6116545548215
          -166.8988070383011 110.74119758444807 10.287075373150898 4.860112312599085e-12 -9.762857189343777e-12 5.9685589803848416e-12
          -177.18580777602565 3.076650045841234e-12 177.18577899471944 156.611599242102 -221.4824071688551 156.6118379440823
          -10.28710657062149 -110.74116934469758 166.8987698051783 -156.61181453919454 221.4824244192558 -156.61165703606235
          -166.89879502383383 110.74119192841027 10.287072932216027 -125.28931202244262 -177.18570325380017 -125.28936067224342
          -151.2375608376821 -88.59286428805596 25.94823378071927 15.66115098629448 -199.33403403920028 15.661223819536069
          -36.46587404197277 -99.6670183769944 52.1270591059198 -140.95057840517651 22.1483621094484 -140.95050053805417
          -114.771721534446 11.074163414350926 -26.178794319089207 2.5579538487363607e-12 -3.9968028886505635e-13 -3.623767952376511e-12
          156.61172366847964 -221.4825381275172 156.6119165708465 -156.6119028629656 221.48255137720048 -156.61174457486834
          2.8066438062523957e-13 -8.348877145181177e-14 -1.9042545318370685e-12 156.61171013881975 -221.48253023981277 156.61191454117528
          -156.61189580840986 221.48255443766539 -156.61174487592706 1.8829382497642655e-12 7.887024366937112e-13 -2.7711166694643907e-12
          156.61169442163623 -221.4825318131451 156.61191166892428 -156.61188526037094 221.48255288783798 -156.61174209400238
          -125.28940159009124 -177.18562376776953 -125.28943891263498 15.661152879884874 -199.3340805932566 15.661225624492076
          -140.95065344851503 22.148457030204785 -140.95057939503445 6.288303211476887e-13 2.398081733190338e-12 -2.0463630789890885e-12
          156.61180448098247 -221.48264273394977 156.6119695600828 -156.61195406251076 221.48265024767744 -156.61182405061663
          -5.506706202140776e-13 3.11928260998684e-12 -1.3784529073745944e-12 156.61179601375767 -221.48264369751456 156.61197171338503
          -156.61194914902927 221.48265397195505 -156.61182412546066 4.870770453635487e-12 5.31841237716435e-12 -8.100187187665142e-13
          156.61178945948632 -221.4826513559584 156.6119756824644 -156.61194320763587 221.4826599511967 -156.61182327054843
          -125.28947000175367 -177.1855478815424 -125.28950195463963 15.661167274749047 -199.33411157070623 15.661227430444612
          -140.95071492699998 22.14854673315476 -140.95065219287693 2.1600499167107046e-12 1.5827339439056232e-12 -3.495870259939693e-12
          156.61187502780078 -221.48273045775684 156.61201098173075 -156.6119949892353 221.48273204660566 -156.61189178976085
          -3.6628478028433165e-12 2.509992214072554e-12 -1.1368683772161603e-12 156.6118709601313 -221.48273734940443 156.6120151405363
          -156.6119918253408 221.48273667181275 -156.6118925624022 2.291500322826323e-12 4.225952920933196e-12 -1.2505552149377763e-12
          156.61186979287078 -221.48274835265 156.61202220410883 -156.61198893641307 221.48274802033242 -156.61189384399268
          -125.28952421803433 -177.18548062443134 -125.28955187619107 15.661179360869795 -199.33413036311174 15.661227444362666
          -140.95076339437378 22.1486233613299 -140.95071414199236 -3.090860900556436e-13 -6.558309451065725e-12 -4.575895218295045e-12
          125.28958178226503 177.1854259773084 125.28957348510664 156.61194314979025 -221.48281652030158 156.6120322465871
          140.9507559387022 -22.148684604020815 140.9508077326892 -156.6120433720731 221.48282185255312 -156.61194632761493
          -15.661224983683127 199.33414167214264 -15.66119150077126 2.433608869978343e-12 -5.313083306646149e-12 -4.689582056016661e-13
          156.61193998759262 -221.48280160244767 156.61203392207264 -156.6120350224678 221.4828091195174 -156.61194464404085
          3.090860900556436e-13 -2.8421709430404007e-13 -3.993250174971763e-12 156.6119382794517 -221.48279641445907 156.61203598826427
          -156.61203032316132 221.48279951225607 -156.61194567274893 3.3786307085392764e-12 -1.9344525981068728e-12 -1.5489831639570184e-12
          156.61193655222434 -221.4827956452113 156.6120380213195 -156.6120275162068 221.48279613119064 -156.6119473279329
          -2.469136006766348e-12 4.037659095956769e-12 -3.822719918389339e-12 125.2896059031488 177.18538456111037 125.28960126156333
          156.61198855086215 -221.48286806273663 156.6120519230511 140.95079266026727 -22.14873159465192 140.95082945373213
          -156.61205852171906 221.4828739263516 -156.61199657193748 -15.661221981285685 199.3341477476936 -15.661201103114067
          -1.2079226507921703e-12 -3.2862601528904634e-13 -9.094947017729282e-13 156.61198552197925 -221.48285168732554 156.61205357827637
          -156.61205151587438 221.48286037960992 -156.6119937106511 -2.255973186038318e-12 3.5562663924793014e-12 -3.481659405224491e-12
          156.6119842611242 -221.48284573725815 156.61205537756786 -156.61204825935832 221.48284977147642 -156.61199340693287
          2.3803181647963356e-13 -2.9061197892588098e-12 3.0411229090532288e-12 156.61198335031403 -221.48284524295596 156.6120568964174
          -156.61204642273324 221.4828455933581 -156.6119940233696 -1.6697754290362354e-12 7.013056801952189e-12 -1.1311840353300795e-11
          125.28961502139384 177.18535311665056 125.28961392746629 156.61202253974903 -221.48290377476349 156.61206026708533
          140.95081547393468 -22.14876518859459 140.95083795393973 -156.61206088437447 221.48290533200054 -156.6120315241104
          -15.661218526893187 199.3341463916167 -15.66120977089038 -1.0302869668521453e-12 7.641887123099877e-12 -5.5990767577895895e-12
          156.61202181815375 -221.48288812526744 156.61206406094541 -156.6120583060059 221.48289321369322 -156.6120305708147
          -3.7978509226377355e-12 9.071854378817079e-12 -4.263256414560601e-12 156.6120216065778 -221.48288215193335 156.61206639825554
          -156.6120578308926 221.48288479168303 -156.6120309118699 -2.8492763703980017e-12 4.108713369532779e-12 -3.481659405224491e-12
          156.61202104271004 -221.4828813249608 156.61206764067828 -156.61205718523723 221.48288157570937 -156.61203161302365
          177.18630454819194 0.00006480108923589967 -177.18629263632798 151.23796390927765 88.59270890739913 -25.9483350730753
          166.89915987450678 -110.74142249454883 -10.2871110234754 114.77198363404386 -11.074369381351719 26.17885006395946
          10.287120374324886 110.74148690401832 -166.89915879109344 36.46596570340735 99.66708847505708 -52.127174944545295
          177.18631183131976 0.00005243167428226059 -177.18630079608212 166.89916375518874 -110.74142090280777 -10.2871140897654
          10.28712371159991 110.74147466713872 -166.8991621764544 177.1863133546051 0.00003165691419759753 -177.18630536568773
          166.8991644376415 -110.74142872393634 -10.287115375019148 10.287123983957777 110.74146120148411 -166.89916479254973
          177.18631258210843 0.00000824695777090767 -177.18630763367946 166.8991636287309 -110.741440005349 -10.287116002327128
          10.287123670294697 110.74144838906997 -166.8991664314501 7.510436716984259e-12 -3.737454790098127e-12 -1.6058265828178264e-12
          156.61193463307418 -221.48279974840304 156.61204056631524 -156.61202529081257 221.4827975145729 -156.6119486520335
          4.050093593832571e-13 6.927791673660977e-13 -8.100187187665142e-13 156.611933585855 -221.48280998614266 156.61204497460002
          -156.6120231983212 221.48280305028146 -156.61194988798957 2.2382096176443156e-13 2.112088282046898e-12 1.7763568394002505e-12
          156.61193552762882 -221.48282280203628 156.61205298761843 -156.61202171360353 221.48281768828036 -156.6119525188459
          -125.2895652419034 -177.18542594561617 -125.28958897977282 15.66119030770389 -199.33414225380665 15.661226101599311
          -140.95079841327617 22.14868520016153 -140.9507640905729 9.556799795973347e-13 -3.4496849821152864e-12 5.7838178690872155e-12
          156.61198259983513 -221.48285009336266 156.6120585718612 -156.6120448022205 221.48284668388231 -156.6119946895726
          -9.734435479913373e-13 -1.8545165403338615e-12 2.0179413695586845e-12 156.611982922276 -221.4828611771648 156.61206163308776
          -156.61204299889147 221.48285290989534 -156.61199564223108 2.8776980798284058e-12 -2.7355895326763857e-12 8.540723683836404e-12
          156.61198592752714 -221.48287466953627 156.61206842687534 -156.61204142674194 221.48286896616486 -156.61199834111392
          -125.28959290630945 -177.18538458446739 -125.28961357638295 15.661200010235191 -199.33414817041427 15.661223035044273
          -140.95082006589345 22.148731998124717 -140.95080130761767 2.9487523534044158e-12 -1.7976731214730535e-12 -3.055333763768431e-12
          156.61202019035707 -221.48288504088765 156.6120681006904 -156.61205579599067 221.482882847577 -156.61203195103604
          4.021671884402167e-12 -4.014566457044566e-12 -2.7569058147491887e-12 156.61201981403747 -221.48289378236416 156.6120683970886
          -156.61205339438183 221.48288899581848 -156.6120319214887 2.8776980798284058e-12 -4.0891734442993766e-12 6.934897101018578e-12
          156.6120208183944 -221.48290584928114 156.61207084278516 -156.61204960866212 221.48290441061832 -156.6120324495846
          -125.28960540250358 -177.18535307578955 -125.28962289062372 15.661208709542407 -199.33414663307533 15.661219533523152
          -140.9508283831745 22.148765475070483 -140.95082431425703 177.18631002441293 -0.000015086758393678679 -177.18630804633852
          166.89916177266778 -110.74145301060129 -10.287116225362205 10.287122977907956 110.74143734876918 -166.89916695704744
          177.18630533403865 -0.00003566838264035255 -177.18630622471443 166.89915907033497 -110.74146652345064 -10.287115879820735
          10.287121682910247 110.74142969367969 -166.8991660187617 177.18629721265998 -0.00004783466521907087 -177.1862987981171
          166.8991557083055 -110.74147864148676 -10.287112524390082 10.28711865953965 110.74143127487774 -166.899161976335
          25.948341681714084 -88.5927003462528 -151.2379649797192 52.12717556734397 -99.66708428443714 -36.465963765425535
          -26.178844082365867 11.074373761762525 -114.77198663053488 51.89655550273018 -177.18580069946856 -302.4751577813643
          20.574261242985035 221.48237485239497 -333.79766175297215 -281.90091815211423 44.296585280348104 -281.90117823356616
          51.896424992843734 -177.1857372524431 -302.47493556803823 354.37165780903706 2.8705926524708048e-12 -354.37160024642725
          354.3716913259758 -8.526512829121202e-12 -354.371633763351 20.574287722011874 221.48239067970647 -333.79769594812524
          -250.57864625339653 -354.37149652075 -250.57857597051475 -313.22325758511323 442.96479556151615 -313.2236359495937
          -250.57866771511374 -354.37144178924666 -250.57876572460003 -313.223316402326 442.96486154689825 -313.22366495106075
          333.79758192398214 -221.48227092937017 -20.57429377471619 -281.9010555493357 44.29680763661448 -281.9012895169047
          354.37161386787017 2.9842794901924208e-12 -354.3715563052694 354.3716908455228 -1.1368683772161603e-12 -354.3716332829013
          31.322402000970374 -398.6680190975136 31.322310699826655 354.3716917807917 -1.1311840353300795e-11 -354.3716342181606
          20.574298285182184 221.48238469375104 -333.79770465927015 -1.1368683772161603e-12 -2.2168933355715126e-12 3.410605131648481e-12
          -250.578786797612 -354.3713895234084 -250.5785675532585 -313.2232407377443 442.96480529785066 -313.2236631481537
          -4.913403017781093e-12 -7.247535904753022e-12 5.6274984672199935e-12 3.318234575999668e-12 -8.526512829121202e-13 -1.9895196601282805e-12
          -313.22331887888936 442.9649069498431 -313.2237019156839 -250.57880581394454 -354.37133845011977 -250.57875427316475
          333.7976308415034 -221.48230707668299 -20.57426501156464 -313.2233948217178 442.96500245242447 -313.223741967612
          354.3716422423212 4.604316927725449e-12 -354.37158467971875 -250.57881191560708 -354.3712659002581 -250.5788998841061
          354.37169714711075 -2.6147972675971687e-12 -354.37163958449077 313.22356846022603 -442.9646286480972 313.2231015950143
          -313.22347347459424 442.96510235286917 -313.223790632825 354.37168195073747 -1.2704504115390591e-11 -354.3716243881054
          20.57430522839314 221.48237868025714 -333.7977061228598 -4.604316927725449e-12 -1.8616219676914625e-12 3.637978807091713e-12
          313.2236392055427 -442.96477593913187 313.223174825286 -281.9012065343534 44.29702632914325 -281.90141756382064
          1.4566126083082054e-12 -2.6147972675971687e-12 -1.2505552149377763e-12 -313.22322239312126 442.9647918196474 -313.2236766740553
          -1.8474111129762605e-12 -1.3358203432289883e-12 1.0800249583553523e-12 31.32242102482476 -398.6681357758919 31.322319881412742
          -1.9468870959826745e-12 2.5863755581667647e-12 -3.979039320256561e-12 -313.2233112647925 442.964900623944 -313.2237186915564
          -1.3073986337985843e-12 -2.0676793610618915e-12 7.389644451905042e-13 -250.5789395326708 -354.3712592439948 -250.5787595681308
          333.797657284583 -221.4823295255916 -20.574263947855137 -313.2234001768404 442.9650129194213 -313.22376361337484
          -2.5366375666635577e-12 -1.9042545318370685e-12 2.3874235921539366e-12 354.3716522565311 4.803268893738277e-12 -354.3715946939288
          -2.1387336346379016e-12 8.526512829121202e-14 3.922195901395753e-12 354.3716964825662 -1.3642420526593924e-12 -354.37163891994635
          313.22361220666846 -442.96467939024404 313.22315153163305 -313.2234804758807 442.96511865811317 -313.22381388884344
          -250.57894134735392 -354.37120030704676 -250.57890047568776 354.3716729630901 -1.1510792319313623e-11 -354.3716154004593
          20.574309679095187 221.48237045934104 -333.7977016720206 -5.9685589803848416e-12 -5.684341886080801e-13 2.8421709430404007e-12
          313.2236765107401 -442.96479206258414 313.22323375832855 -313.2235584948312 442.965220952261 -313.2238625539826
          3.993250174971763e-12 -5.087485988042317e-12 -1.1368683772161603e-12 -250.57893685792777 -354.3711109522561 -250.57901966790146