<?xml version="1.0"?>
<VTKFile type="UnstructuredGrid" version="0.1" byte_order="LittleEndian" header_type="UInt32">
  <UnstructuredGrid>
    <FieldData>
      <DataArray type="Int8" Name="IntegrationPointMetaData" NumberOfTuples="97" format="ascii" RangeMin="34" RangeMax="125">
        123 34 105 110 116 101
        103 114 97 116 105 111
        110 95 112 111 105 110
        116 95 97 114 114 97
        121 115 34 58 91 123
        34 105 110 116 101 103
        114 97 116 105 111 110
        95 111 114 100 101 114
        34 58 50 44 34 110
        97 109 101 34 58 34
        115 105 103 109 97 95
        105 112 34 44 34 110
        117 109 98 101 114 95
        111 102 95 99 111 109
        112 111 110 101 110 116
        115 34 58 54 125 93
        125
      </DataArray>
      <DataArray type="Int8" Name="OGS_VERSION" NumberOfTuples="19" format="ascii" RangeMin="45" RangeMax="103">
        54 46 50 46 48 45
        56 49 45 103 51 49
        57 56 49 54 48 57
        57
      </DataArray>
      <DataArray type="Float64" Name="sigma_ip" NumberOfComponents="6" NumberOfTuples="3456" format="ascii" RangeMin="1414213.5623730745" RangeMax="1414213.5623731106">
        -4.310005585818919e-9 -1.5652926465360938e-9 -1.3073026890929878e-9 999999.9999999944 -1.7824535968944221e-10 999999.9999999983
        -9.087717984489016e-9 -3.835409319314195e-9 -2.0622445837495202e-9 999999.9999999958 -1.6099580875175427e-10 999999.9999999986
        -1.2447798247319676e-8 -4.26186849542108e-9 -2.1667221125810196e-9 999999.9999999952 5.749850312562652e-11 999999.9999999987
        -7.062091542928318e-10 8.280093586057342e-11 -5.135496794975894e-10 999999.9999999943 -1.3799640750150365e-10 999999.9999999979
        -2.8191983608640796e-9 -1.1034204103169624e-9 -5.178993894582013e-10 999999.9999999949 2.299940125025061e-11 999999.9999999983
        -5.048438754277197e-9 -1.9569120351130244e-9 -8.056210444910579e-10 999999.9999999946 7.474805406331449e-11 999999.9999999986
        3.771420199226657e-9 2.3403405069084023e-9 7.032457653687466e-10 999999.9999999951 9.774745531356509e-11 999999.9999999984
        1.7463053550123988e-9 7.352484172025443e-10 5.250148651212253e-11 999999.9999999951 1.6099580875175427e-10 999999.9999999984
        -1.1482495893482322e-9 -8.271449312136009e-10 -2.4129076930792675e-10 999999.9999999946 2.0699461125225548e-10 999999.9999999987
        -1.8105441994065038e-9 -2.9949578193128457e-9 -3.484279604706552e-9 999999.9999999964 -9.889742537607763e-10 999999.9999999984
        -3.597363682301442e-9 -4.650509749630927e-9 -3.0466260825332474e-9 999999.9999999977 -4.5998802500501217e-10 999999.9999999991
        -2.4734431802337073e-9 -2.9139848707569913e-10 -1.4723583221326429e-9 999999.9999999969 4.5998802500501217e-10 999999.9999999991
        2.1837264101763096e-9 1.3354897105390398e-9 9.356133878586484e-10 999999.9999999959 -1.8399521000200488e-10 999999.999999998
        7.819289591529697e-10 -9.398581710357257e-10 -9.254698846635477e-10 999999.9999999966 9.199760500100244e-11 999999.9999999983
        1.4762438829703894e-9 9.806461772830435e-10 8.364629555488695e-10 999999.9999999959 4.3698862375476157e-10 999999.9999999984
        4.675728272547963e-9 2.927167957815746e-9 4.819211919453235e-10 999999.9999999959 -2.0699461125225548e-10 999999.9999999983
        3.075530971354976e-9 8.34495025846028e-10 6.135915144281906e-11 999999.9999999951 9.199760500100243e-10 999999.999999998
        4.307899044131839e-10 -1.3538992982846446e-9 -5.415217892052484e-10 999999.9999999946 4.829874262552628e-10 999999.9999999987
        8.758827219022584e-10 -5.870074637946803e-9 -2.8947374451983546e-9 999999.999999998 -1.3799640750150365e-10 999999.9999999983
        2.7128451105590712e-9 -3.4351991282664717e-9 -3.406762399574712e-9 999999.9999999984 1.8399521000200488e-10 999999.9999999983
        7.949270080365542e-9 6.163365749205927e-9 -2.3257399554579584e-9 999999.9999999967 6.439832350070171e-10 999999.9999999983
        2.9120404452802393e-9 -1.4443031838877315e-9 -1.0773176221204644e-9 999999.9999999958 -1.8399521000200488e-10 999999.9999999971
        4.6048394851777835e-9 -8.846645151126133e-10 -2.599368860524667e-10 999999.9999999966 3.6799042000400976e-10 999999.9999999976
        7.765992318785368e-9 4.196839638371216e-9 1.116530982667948e-9 999999.9999999951 1.1959688650130318e-9 999999.9999999971
        6.450536798530163e-9 4.494546457839277e-9 2.5394241454075205e-9 999999.999999996 8.279784450090219e-10 999999.9999999979
        4.3002711858320414e-9 3.523703146510501e-10 4.342465400450884e-10 999999.9999999951 7.359808400080195e-10 999999.999999998
        2.781231897803627e-9 5.048242489510064e-10 -9.076078594866661e-10 999999.9999999935 5.059868275055134e-10 999999.9999999984
        4.853308292586493e-9 9.380064573443502e-10 9.958876224374574e-10 999999.9999999952 1.4949610812662897e-10 999999.9999999986
        -9.994536312982758e-10 -6.010557366252101e-10 -1.1371062286475193e-10 999999.9999999946 2.9899221625325795e-10 999999.9999999979
        -2.5704871691722882e-9 -5.027185025494625e-10 1.67440789352446e-11 999999.9999999941 3.794901206291351e-10 999999.9999999972
        1.1165107158115728e-8 3.3383500797552216e-9 1.505444313015926e-9 999999.9999999935 -1.1499700625125304e-10 999999.9999999991
        5.368354912010068e-9 2.040958631595198e-9 9.192183869584474e-10 999999.9999999941 1.3799640750150365e-10 999999.9999999983
        1.1181685709424022e-9 1.0392194870476556e-9 3.5314452289370935e-10 999999.9999999944 2.472435634401941e-10 999999.9999999984
        1.15901206642529e-8 3.4992090758199615e-9 1.6929405126842453e-9 999999.9999999921 -3.622405696914471e-10 999999.9999999991
        8.749272323675421e-9 3.343484141421809e-9 1.29107075551407e-9 999999.9999999943 -1.1499700625125304e-10 999999.9999999984
        5.2549870209368245e-9 2.8235581285840234e-9 9.816800035105684e-10 999999.9999999949 1.32246557188941e-10 999999.9999999986
        8.446538939789551e-9 -6.496869421050267e-10 1.9420126196343205e-9 999999.9999999946 5.519856300060146e-10 999999.9999999984
        2.677902730515485e-9 -1.7655650016102557e-10 4.6114143772170546e-10 999999.999999996 5.519856300060146e-10 999999.9999999979
        -2.919534262978201e-10 -1.4014933373858527e-9 -1.3723614644609078e-9 999999.9999999959 7.129814387577689e-10 999999.9999999971
        1.290725549350868e-8 2.1573874261661966e-9 1.406033339169655e-9 999999.999999992 -4.5998802500501217e-10 999999.9999999994
        7.904072553389708e-9 3.072801069750012e-9 1.935238029714198e-9 999999.9999999944 1.8399521000200488e-10 999999.9999999991
        3.5536689633979596e-9 2.5280174564690493e-9 1.1747772824461367e-9 999999.9999999952 4.5998802500501217e-10 999999.9999999984
        1.1036388103435076e-8 1.2713814495170835e-9 6.933602458316227e-10 999999.9999999888 -1.770953896269297e-9 999999.9999999987
        9.464884740833751e-9 4.010735020265944e-9 1.2577245110359717e-9 999999.9999999928 -5.519856300060146e-10 999999.9999999986
        6.906688491092904e-9 5.227252114182037e-9 2.1191251001208035e-9 999999.9999999956 2.759928150030073e-10 999999.9999999992
        1.4177979841040262e-8 4.211144940325642e-9 2.9306247461112492e-9 999999.9999999941 1.8399521000200488e-10 999999.9999999991
        4.895297384464674e-9 -2.2758414039626016e-9 -1.5769770915954545e-9 999999.9999999964 -1.8399521000200488e-10 999999.9999999976
        -2.85991490667926e-10 -7.98440846958098e-9 -4.414823295841194e-9 999999.9999999976 -5.519856300060146e-10 999999.9999999971
        1.5001863805926035e-8 2.2643148194715846e-9 1.0043567884452284e-9 999999.999999989 -1.5179604825165403e-9 999999.9999999992
        9.401284015309762e-9 2.5158843461687512e-9 8.086924387753865e-10 999999.9999999936 -3.6799042000400976e-10 999999.9999999991
        4.190307199989099e-9 1.6367546952717062e-10 -2.0078150077036402e-10 999999.9999999956 -4.599880250050122e-11 999999.9999999984
        1.1943362656099941e-8 8.344127260627921e-10 3.317628627073444e-9 999999.9999999851 -2.6219317425285697e-9 999999.9999999986
        1.0090578771879736e-8 4.111181595024782e-9 1.629074242540363e-9 999999.9999999913 -1.2879664700140342e-9 999999.9999999987
        7.161837956619043e-9 6.2894193933777515e-9 -7.177972679239173e-10 999999.9999999958 -2.2999401250250608e-10 999999.9999999999
        4.061079124113438e-9 3.2869776962092205e-10 2.579242059339028e-10 999999.9999999944 2.3574386281506875e-10 999999.9999999986
        2.569057911647393e-9 -1.0189783390033017e-10 -9.455869695359785e-11 999999.9999999949 1.8399521000200488e-10 999999.9999999987
        2.518568743226683e-10 -6.202205915191783e-10 -1.8616891775297828e-10 999999.9999999943 2.932423659406953e-10 999999.9999999992
        4.147880228022046e-9 8.966541324309965e-10 1.6724659867967588e-10 999999.9999999938 6.899820375075182e-11 999999.9999999994
        3.622138984050603e-9 1.1060611568453784e-9 4.4129867981695825e-10 999999.9999999936 2.0699461125225548e-10 999999.9999999994
        3.324563579138509e-9 1.1109171991400412e-9 5.657665101206354e-10 999999.9999999936 2.3574386281506875e-10 999999.9999999992
        4.492255433220905e-9 1.5664426872335195e-9 4.5163726313143495e-10 999999.9999999936 1.1499700625125305e-11 999999.9999999999
        4.0242790794981265e-9 1.9490020071868318e-9 7.57866796232584e-10 999999.9999999941 1.3799640750150365e-10 1000000
        5.22495668997541e-9 2.617430171131589e-9 1.282188709573047e-9 999999.9999999935 2.759928150030073e-10 999999.9999999994
        3.635014278736096e-9 -2.9324312594455253e-9 6.727276317256691e-10 999999.9999999941 9.199760500100243e-10 999999.9999999986
        2.3931269397701062e-9 -2.5123835083192535e-9 6.476353900939765e-11 999999.9999999944 1.1959688650130318e-9 999999.9999999991
        2.7496616377413623e-10 -2.396232418144824e-9 -1.9798485040793088e-10 999999.9999999951 1.057972457511528e-9 999999.9999999992
[...]
      <PointData>
        <DataArray type="Float64" Name="MaterialForces" NumberOfComponents="3" format="ascii" RangeMin="2.7047913108074834e-13" RangeMax="626.4465401156745">
          -1.7692514120426495e-12 1.0373923942097463e-12 -1.4495071809506044e-12 -250.57861604626913 2.842170943040401e-14 -6.963318810448982e-13
          -125.28930802313485 125.28930802313334 -1.5631940186722204e-13 -1.5205614545266144e-12 250.57861604626697 -3.410605131648481e-13
          -1.1084466677857563e-12 1.7763568394002505e-13 313.22327005783364 -125.2893080231346 -1.7763568394002505e-13 156.61163502891668
          -62.6446540115672 62.64465401156659 78.3058175144583 -2.0605739337042905e-13 125.2893080231334 156.61163502891648
          -4.405364961712621e-13 2.2737367544323206e-13 -313.22327005783393 -125.28930802313408 1.5631940186722204e-13 -156.61163502891708
          -62.64465401156719 62.64465401156648 -78.30581751445827 -2.0605739337042905e-13 125.2893080231332 -156.61163502891665
          2.3234747459355276e-12 1.2363443602225743e-12 -3.268496584496461e-13 -250.57861604626726 2.1316282072803006e-13 -4.547473508864641e-13
          2.4158453015843406e-13 4.973799150320701e-14 313.22327005783393 -125.2893080231339 -6.394884621840902e-14 156.61163502891674
          -3.907985046680551e-13 1.1368683772161603e-12 -313.22327005783325 -125.28930802313405 2.8421709430404007e-13 -156.6116350289168
          3.467448550509289e-12 4.476419235288631e-13 -6.963318810448982e-13 -250.57861604626692 2.2026824808563106e-13 -3.268496584496461e-13
          1.3358203432289883e-12 -3.197442310920451e-13 313.22327005783376 -125.28930802313346 -5.684341886080802e-14 156.6116350289168
          2.0037305148434825e-12 4.263256414560601e-13 -313.22327005783313 -125.28930802313366 1.8474111129762605e-13 -156.61163502891685
          3.218758592993254e-12 1.1368683772161603e-13 -1.2789769243681803e-12 -250.5786160462677 1.5631940186722204e-13 -9.947598300641403e-13
          1.1937117960769683e-12 -4.547473508864641e-13 313.2232700578333 -125.28930802313357 -9.947598300641403e-14 156.61163502891617
          1.4352963262354024e-12 6.536993168992922e-13 -313.2232700578338 -125.28930802313371 1.9184653865522705e-13 -156.6116350289168
          3.907985046680551e-12 1.5631940186722204e-12 6.821210263296962e-13 2.5792701308091637e-12 250.57861604626794 1.7053025658242404e-13
          -7.105427357601002e-15 1.7834622667578515e-12 313.2232700578347 -5.542233338928781e-13 125.28930802313431 156.61163502891782
          7.460698725481052e-13 5.186961971048731e-13 -313.2232700578337 2.2097879082139116e-12 125.28930802313333 -156.6116350289165
          2.7853275241795927e-12 1.3358203432289883e-12 -7.958078640513122e-13 2.4868995751603507e-12 2.5579538487363607e-13 313.22327005783535
          -2.7000623958883807e-12 8.242295734817162e-13 -313.2232700578345 2.4300561562995426e-12 3.126388037344441e-13 -1.4637180356658064e-12
          -2.0605739337042905e-13 -3.765876499528531e-13 313.2232700578354 3.197442310920451e-13 4.547473508864641e-13 -313.223270057835
          6.764366844436154e-12 -1.8474111129762605e-13 -1.8332002582610585e-12 3.289812866569264e-12 -1.7763568394002505e-13 313.22327005783563
          3.929301328753354e-12 4.973799150320701e-14 -313.2232700578363 2.7426949600339867e-12 1.3997691894473974e-12 -5.258016244624741e-13
          2.1032064978498966e-12 250.57861604626783 1.6484591469634324e-12 -7.105427357601002e-15 1.5702994460298214e-12 313.2232700578354
          7.887024366937112e-13 125.28930802313516 156.61163502891878 1.5276668818842154e-12 6.039613253960852e-13 -313.22327005783615
          2.0747847884194925e-12 125.28930802313414 -156.61163502891736 1.0089706847793423e-12 3.055333763768431e-13 -3.353761712787673e-12
          -1.2860823517257813e-12 2.4868995751603507e-13 313.22327005783586 -2.4513724383723456e-12 8.952838470577262e-13 -313.22327005783814
          1.8971491044794675e-12 -4.263256414560601e-13 -3.709033080667723e-12 -1.1723955140041653e-12 -7.105427357601002e-15 313.22327005783615
          1.0658141036401503e-13 2.4158453015843406e-13 -313.22327005783853 2.7711166694643907e-12 -5.471179065352771e-13 -4.845901457883883e-12
          2.4016344468691386e-12 -2.913225216616411e-13 313.2232700578369 -1.0302869668521453e-12 -3.339550858072471e-13 -313.2232700578396
          -3.652189661806915e-12 5.755396159656812e-13 -3.993250174971763e-12 1.5134560271690134e-12 250.57861604626925 4.547473508864641e-13
          -1.2363443602225743e-12 6.252776074688882e-13 313.22327005783376 1.6342482922482304e-12 125.28930802313464 156.61163502891765
          -2.8421709430404007e-12 3.552713678800501e-13 -313.22327005783677 9.094947017729282e-13 125.28930802313377 -156.6116350289169
          -5.8051341511600185e-12 -1.3287149158713873e-12 -3.993250174971763e-12 -3.886668764607748e-12 -9.023892744153272e-13 313.2232700578352
          -1.4139800441625994e-12 -9.947598300641403e-14 -313.22327005783717 -1.9966250874858815e-12 -1.1581846592889633e-12 -3.609557097661309e-12
          -1.0516032489249483e-12 -1.0089706847793423e-12 313.2232700578347 -3.844036200462142e-12 -6.963318810448982e-13 -313.22327005783706
          -7.815970093361102e-13 -1.5063505998114124e-12 -3.240074875066057e-12 1.9468870959826745e-12 -1.2434497875801753e-12 313.2232700578364
          -1.9966250874858815e-12 -1.1723955140041653e-12 -313.22327005783745 3.439026841078885e-12 -7.105427357601002e-15 -2.5437429940211587e-12
          -250.5786160462676 2.984279490192421e-13 -1.1795009413617663e-12 1.2647660696529783e-12 -4.476419235288631e-13 313.2232700578336
          -125.289308023134 4.973799150320701e-14 156.6116350289169 4.405364961712621e-13 4.973799150320701e-13 -313.22327005783507
          -125.28930802313386 2.6290081223123707e-13 -156.61163502891748 1.1368683772161603e-12 -7.958078640513122e-13 -4.632738637155853e-12
          -250.5786160462673 2.3447910280083306e-13 -1.4921397450962104e-12 -5.542233338928781e-13 -1.0871303857129533e-12 313.223270057833
          -125.28930802313391 -1.6342482922482304e-13 156.61163502891668 -2.0818902157770935e-12 7.815970093361102e-14 -313.2232700578362
          -125.28930802313405 2.4158453015843406e-13 -156.61163502891776 4.050093593832571e-13 5.329070518200751e-13 -3.581135388230905e-12
          -250.57861604626785 4.405364961712621e-13 -1.3358203432289883e-12 -1.4210854715202004e-14 -1.4210854715202004e-14 313.22327005783376
          -125.28930802313361 -1.3500311979441904e-13 156.6116350289164 -6.323830348264892e-13 1.0373923942097463e-12 -313.22327005783643
          -125.28930802313405 5.542233338928781e-13 -156.6116350289175 -2.913225216616411e-13 -250.57861604626646 1.5631940186722204e-13
          -125.289308023134 -125.28930802313349 1.4210854715202004e-14 2.4158453015843406e-13 -125.28930802313329 156.61163502891765
          -62.64465401156689 -62.644654011566764 78.30581751445862 -5.542233338928781e-13 -125.28930802313312 -156.61163502891753
          -62.64465401156712 -62.64465401156652 -78.30581751445858 5.130118552187923e-12 -9.023892744153272e-13 -2.7569058147491887e-12
          3.979039320256561e-13 -4.902744876744691e-13 313.2232700578353 2.1529444893531036e-12 6.394884621840902e-14 -313.22327005783654
          1.1368683772161603e-12 -1.7834622667578515e-12 -5.4143356464919634e-12 -1.7976731214730535e-12 -1.1439738045737613e-12 313.2232700578342
          6.252776074688882e-13 -2.8421709430404007e-13 -313.22327005783757 2.5153212845907547e-12 -1.1368683772161603e-13 -5.4853899200679734e-12
          6.679101716144942e-13 -4.760636329592671e-13 313.22327005783336 -1.0373923942097463e-12 -6.323830348264892e-13 -313.2232700578372
          -7.602807272633072e-13 -250.57861604626788 -9.379164112033322e-13 1.2576606422953773e-12 -125.28930802313363 156.61163502891702
          -2.0108359422010835e-12 -125.28930802313394 -156.61163502891804 -1.5205614545266144e-12 2.984279490192421e-13 -3.126388037344441e-12
          -8.313350008393172e-13 3.765876499528531e-13 313.22327005783677 -2.7355895326763857e-12 4.050093593832571e-13 -313.2232700578391
          -5.400124791776761e-13 -7.815970093361102e-13 -4.050093593832571e-12 -1.0729195309977513e-12 -5.684341886080801e-13 313.2232700578361
          -2.7640112421067897e-12 4.831690603168681e-13 -313.22327005783825 3.282707439211663e-12 1.3500311979441904e-13 -5.101696842757519e-12
          1.8616219676914625e-12 -5.400124791776761e-13 313.2232700578346 -2.8421709430404007e-13 1.2789769243681803e-13 -313.22327005783836
          -1.1155520951433573e-12 -250.57861604626777 -2.7853275241795927e-12 3.694822225952521e-13 -125.28930802313431 156.61163502891782
          -9.521272659185342e-13 -125.2893080231347 -156.61163502892035 -4.781952611665474e-12 -7.602807272633072e-13 -2.8279600883251987e-12
          -4.995115432393504e-12 -6.181721801112872e-13 313.22327005783734 -1.3145040611561853e-12 7.105427357601002e-14 -313.22327005783717
          -2.5579538487363607e-12 -8.384404281969182e-13 -4.646949491871055e-12 -1.0587086762825493e-12 -1.0942358130705543e-12 313.22327005783666
          -2.1245227799226996e-12 3.552713678800501e-13 -313.223270057837 -7.958078640513122e-13 -7.673861546209082e-13 -4.888534022029489e-12
          -1.9610979506978765e-12 -9.805489753489383e-13 313.22327005783507 -9.521272659185342e-13 -4.831690603168681e-13 -313.22327005783717
          -5.4427573559223674e-12 -250.57861604626908 -2.4584778657299466e-12 -3.467448550509289e-12 -125.28930802313423 156.6116350289173
          -1.1581846592889633e-12 -125.28930802313465 -156.61163502891952 -6.0538241086760536e-12 1.4352963262354024e-12 -4.789058039023075e-12
          1.8616219676914625e-12 250.57861604626885 -1.0089706847793423e-12 -8.526512829121202e-14 1.2860823517257813e-12 313.22327005783274
          1.7905676941154525e-12 125.28930802313417 156.6116350289165 -4.192202140984591e-12 1.5134560271690134e-12 -313.2232700578374
          -1.7266188478970435e-12 125.28930802313468 -156.61163502891898 -8.263612016889965e-12 -1.7266188478970435e-12 -4.590106073010247e-12
          -2.1884716261411086e-12 -3.765876499528531e-13 313.2232700578327 -3.907985046680551e-13 9.237055564881302e-14 -313.2232700578372
          -1.0594192190183094e-11 -1.5276668818842154e-12 -2.5011104298755527e-12 -9.272582701669307e-12 -1.9895196601282805e-13 313.2232700578342
          -1.6981971384666394e-12 -1.7053025658242404e-13 -313.2232700578357 -4.170885858911788e-12 -1.3002932064409833e-12 -4.348521542851813e-12
          -5.158540261618327e-12 -4.831690603168681e-13 313.22327005783455 1.4992451724538114e-12 -6.181721801112872e-13 -313.2232700578374
          4.675371201301459e-12 1.6768808563938364e-12 -3.197442310920451e-12 1.3855583347321954e-12 250.57861604626845 -1.6910917111090384e-12
          7.680966973566683e-12 2.2026824808563106e-13 313.2232700578324 2.4016344468691386e-12 125.28930802313445 156.6116350289164
          -5.6914473134384025e-12 7.531752999057062e-13 -313.22327005783677 -3.0340174816956278e-12 125.28930802313425 -156.61163502891816
          1.7976731214730535e-12 -2.2026824808563106e-13 -2.2168933355715126e-12 4.035882739117369e-12 -4.973799150320701e-13 313.223270057835
          1.8047785488306545e-12 3.126388037344441e-13 -313.2232700578349 -5.137223979545524e-12 9.521272659185342e-13 -2.5579538487363607e-12
          -6.0040861171728466e-12 1.2079226507921703e-13 313.22327005783444 1.6271428648906294e-12 1.8474111129762605e-13 -313.22327005783376
          -3.957723038183758e-12 -9.237055564881302e-14 -4.703792910731863e-12 -4.725109192804666e-12 -1.4424017535930034e-12 313.2232700578351
          -2.0605739337042905e-13 2.6290081223123707e-13 -313.22327005783586 -6.728839707648149e-12 -2.7000623958883807e-13 -2.3732127374387346e-12
          -2.7426949600339867e-12 250.57861604626737 -2.2879476091475226e-12 1.9895196601282805e-12 2.4868995751603507e-13 313.22327005783427
          3.275602011854062e-12 125.28930802313295 156.61163502891472 -7.283063041541027e-12 -1.0871303857129533e-12 -313.2232700578355
          -4.227729277772596e-12 125.28930802313322 -156.61163502891839 -2.8563817977556027e-12 -6.181721801112872e-13 1.5631940186722204e-12
          -2.6147972675971687e-12 -2.5579538487363607e-13 313.22327005783814 8.526512829121202e-13 -6.110667527536862e-13 -313.2232700578335
          7.034373084024992e-13 1.1937117960769683e-12 9.237055564881302e-13 -3.197442310920451e-13 -3.552713678800501e-13 313.2232700578377
          -2.1032064978498966e-12 -1.0942358130705543e-12 -313.22327005783376 1.1155520951433573e-12 -1.1368683772161603e-12 2.8421709430404007e-13
          4.355626970209414e-12 -1.4210854715202004e-12 313.2232700578347 -2.8492763703980017e-12 2.4868995751603507e-13 -313.2232700578344
          250.57861604626413 -7.958078640513122e-13 -4.831690603168681e-13 125.28930802313239 125.28930802313354 -9.379164112033322e-13
          125.28930802313403 -2.2026824808563106e-13 156.61163502891657 62.6446540115682 62.644654011566104 78.30581751445682
          125.28930802313201 -4.405364961712621e-13 -156.6116350289168 62.6446540115648 62.64465401156679 -78.30581751445919
          250.57861604627215 2.1032064978498966e-12 1.8332002582610585e-12 125.28930802313289 1.1297629498585593e-12 156.6116350289178
          125.28930802313796 3.836930773104541e-13 -156.6116350289177 250.5786160462652 2.4868995751603507e-13 5.115907697472721e-13
          125.2893080231348 7.105427357601002e-15 156.61163502891813 125.28930802312712 -4.192202140984591e-13 -156.6116350289156
          250.57861604627902 1.1013412404281553e-12 1.9468870959826745e-12 125.28930802314079 3.055333763768431e-13 156.61163502891685
          125.28930802313468 -2.7000623958883807e-13 -156.61163502891577 -6.600942015211331e-12 5.471179065352771e-13 -5.144329406903125e-12
          -3.112177182629239e-12 -2.2737367544323206e-13 313.2232700578349 -3.069544618483633e-12 7.460698725481052e-13 -313.2232700578365
          -5.7411853049416095e-12 -1.7053025658242404e-13 -6.338041202980094e-12 -4.554578936222242e-12 -8.171241461241152e-13 313.22327005783546
          2.4868995751603507e-13 1.1297629498585593e-12 -313.22327005783836 -1.3095302620058646e-11 -1.3997691894473974e-12 -6.0822458181064576e-12
          -9.194423000735696e-12 -8.739675649849232e-13 313.2232700578354 -5.258016244624741e-13 9.947598300641403e-14 -313.22327005784035
          -8.08597633294994e-12 -250.57861604626797 -1.3073986337985843e-12 -6.586731160496129e-12 -125.289308023134 156.61163502891858
          2.1103119252074976e-12 -125.28930802313388 -156.61163502891975 -6.671996288787341e-12 2.2879476091475226e-12 -5.9827698351000436e-12
          8.668621376273222e-13 4.902744876744691e-13 313.2232700578337 -7.048583938740194e-12 2.4726887204451486e-12 -313.2232700578381
          -1.4921397450962104e-12 1.2505552149377763e-12 -7.73070496506989e-12 1.3713474800169934e-12 6.892264536872972e-13 313.22327005783325
          1.3429257705865894e-12 5.897504706808832e-13 -313.2232700578379 1.5134560271690134e-12 1.6910917111090384e-12 -4.931166586175095e-12
          4.902744876744691e-13 4.121147867408581e-13 313.2232700578342 4.526157226791838e-12 2.2453150450019166e-12 -313.2232700578362
          -1.7479351299698465e-12 -250.57861604626717 -1.7763568394002505e-12 -4.547473508864641e-13 -125.2893080231338 156.61163502891793
          2.2737367544323206e-13 -125.28930802313307 -156.6116350289189 -7.425171588693047e-12 4.831690603168681e-13 -1.9042545318370685e-12
          1.6626700016786344e-12 3.055333763768431e-13 313.223270057835 -5.3859139370615594e-12 4.334310688136611e-13 -313.22327005783757
          1.1510792319313623e-12 2.1316282072803006e-14 -3.126388037344441e-12 5.5635496210015845e-12 2.4158453015843406e-13 313.2232700578344
          -1.7692514120426495e-12 2.913225216616411e-13 -313.2232700578372 -1.0601297617540695e-11 9.237055564881302e-14 -3.268496584496461e-12
          -3.75877107217093e-12 4.121147867408581e-13 313.2232700578331 -5.051958851254312e-12 1.2079226507921703e-12 -313.22327005783694
          -1.0700773600547109e-11 -250.5786160462677 -2.2737367544323206e-13 -2.0676793610618915e-12 -125.28930802313417 156.61163502891898
          -6.814104835939361e-12 -125.28930802313405 -156.61163502891853 250.57861604626856 1.1084466677857563e-12 1.1795009413617663e-12
          125.28930802313454 1.4779288903810084e-12 156.61163502891714 125.28930802313246 -3.481659405224491e-13 -156.61163502891753
          250.57861604627425 -1.2789769243681803e-13 -2.1174173525650986e-12 125.28930802313928 2.7000623958883807e-13 156.61163502891628
          125.28930802313695 9.237055564881302e-13 -156.61163502891796 250.57861604627124 3.979039320256561e-13 -1.1795009413617663e-12
          125.28930802313535 2.1316282072803006e-13 156.6116350289171 125.2893080231375 -8.526512829121202e-14 -156.61163502891895
          125.28930802313432 -125.28930802313405 1.8047785488306545e-12 62.644654011568576 -62.64465401156603 78.30581751445918
          62.6446540115641 -62.64465401156685 -78.30581751445791 250.57861604626748 -250.57861604626643 1.439959262938828e-13
          250.5786160462683 -250.57861604626626 -5.917488721252084e-14 250.57861604626802 2.7977620220553945e-13 -313.22327005783313
          501.15723209253713 6.161737786669619e-14 3.979039320256561e-13 250.57861604626754 1.9517720772910252e-13 313.2232700578329
          501.1572320925359 5.684341886080802e-14 2.8377300509419e-13 501.15723209253554 -8.526512829121202e-14 6.822320486321587e-13
          250.57861604626845 -7.105427357601002e-15 -313.22327005783325 501.1572320925359 -3.141931159689193e-13 3.979039320256561e-13
          250.5786160462679 -4.4153569689342476e-13 313.2232700578329 501.1572320925345 0 -6.827871601444713e-14
          501.1572320925351 -5.684341886080802e-14 -1.0091927293842673e-13 250.57861604626808 1.5898393712632242e-13 -313.2232700578332
          501.1572320925349 -2.4646951146678475e-14 6.252776074688882e-13 250.57861604626768 -5.3512749786932545e-14 313.2232700578334
          501.1572320925343 -1.1368683772161603e-13 1.708633234898116e-13 501.15723209253497 -1.1368683772161603e-13 -1.2956302697375577e-13
          250.57861604626714 -2.842170943040401e-14 -313.2232700578331 501.1572320925352 -2.651212582804874e-13 5.115907697472721e-13
          250.57861604626754 -3.559375016948252e-13 313.22327005783274 501.15723209253497 -2.2737367544323206e-13 1.3575807145116414e-12
          501.15723209253485 -1.7053025658242404e-13 1.5287771049088406e-13 250.57861604626805 1.9806378759312793e-13 -313.2232700578337
          501.15723209253616 -1.2467804566540508e-13 7.958078640513122e-13 250.57861604626783 -8.426592756904938e-14 313.2232700578336
          501.1572320925351 -3.126388037344441e-13 9.989786775577159e-13 501.15723209253497 -1.9895196601282805e-13 7.750466934908218e-13
          250.57861604626788 -1.6076029396572267e-13 -313.223270057834 501.15723209253474 -3.433919815165609e-13 9.094947017729282e-13
          250.57861604626828 -2.3425705819590803e-13 313.2232700578335 501.1572320925343 -5.684341886080802e-14 3.140820936664568e-13
          501.157232092535 -2.8421709430404007e-13 6.750155989720952e-13 250.57861604626805 4.565237077258644e-13 -313.2232700578336
          501.1572320925352 -1.701971896750365e-13 1.3073986337985843e-12 250.5786160462681 -1.8285373215576328e-13 313.2232700578337
          501.15723209253485 -5.684341886080802e-14 1.2989609388114332e-13 501.1572320925354 -3.979039320256561e-13 1.3201661985817736e-12
          250.57861604626743 -6.661338147750939e-14 -313.2232700578335 501.15723209253565 -2.30593322214645e-13 3.979039320256561e-13
          250.57861604626837 -5.770939282001564e-13 313.22327005783393 250.57861604626686 250.57861604626714 -5.098144129078719e-13