<?xml version="1.0"?>
<VTKFile type="UnstructuredGrid" version="0.1" byte_order="LittleEndian" header_type="UInt32">
  <UnstructuredGrid>
    <FieldData>
      <DataArray type="Int8" Name="IntegrationPointMetaData" NumberOfTuples="237" format="ascii" RangeMin="34" RangeMax="125">
        123 34 105 110 116 101
        103 114 97 116 105 111
        110 95 112 111 105 110
        116 95 97 114 114 97
        121 115 34 58 91 123
        34 105 110 116 101 103
        114 97 116 105 111 110
        95 111 114 100 101 114
        34 58 50 44 34 110
        97 109 101 34 58 34
        115 105 103 109 97 95
        105 112 34 44 34 110
        117 109 98 101 114 95
        111 102 95 99 111 109
        112 111 110 101 110 116
        115 34 58 54 125 44
        123 34 105 110 116 101
        103 114 97 116 105 111
        110 95 111 114 100 101
        114 34 58 50 44 34
        110 97 109 101 34 58
        34 101 112 115 105 108
        111 110 95 105 112 34
        44 34 110 117 109 98
        101 114 95 111 102 95
        99 111 109 112 111 110
        101 110 116 115 34 58
        54 125 44 123 34 105
        110 116 101 103 114 97
        116 105 111 110 95 111
        114 100 101 114 34 58
        50 44 34 110 97 109
        101 34 58 34 101 112
        115 105 108 111 110 95
        109 95 105 112 34 44
        34 110 117 109 98 101
        114 95 111 102 95 99
        111 109 112 111 110 101
        110 116 115 34 58 54
        125 93 125
      </DataArray>
      <DataArray type="Int8" Name="OGS_VERSION" NumberOfTuples="40" format="ascii" RangeMin="45" RangeMax="121">
        54 46 50 46 48 45
        49 53 45 103 53 51
        56 49 101 101 99 99
        100 46 100 105 114 116
        121 46 50 48 49 57
        48 52 48 49 49 53
        48 52 49 50
      </DataArray>
      <DataArray type="Float64" Name="epsilon_ip" NumberOfComponents="6" NumberOfTuples="8640" format="ascii" RangeMin="0.00095630534192" RangeMax="0.016014257409">
        0.0066762099923 4.3199342741e-16 0.0066762099923 1.3645510764e-16 -7.0752291419e-15 -1.5308401472e-14
        0.009 2.5255633142e-16 0.009 -2.3808510794e-17 3.9252311467e-17 -1.0362610227e-14
        0.011323790008 3.7492740968e-16 0.011323790008 2.3080507436e-16 -3.2186895403e-15 -5.6915851627e-15
        0.0066762099923 3.1205312725e-16 0.0066762099923 -3.2965560193e-17 -1.177569344e-16 -1.5210270693e-14
        0.009 5.3286857175e-17 0.009 -2.8845330322e-17 3.9252311467e-17 -9.3813024406e-15
        0.011323790008 9.6328761344e-17 0.011323790008 -4.0362044627e-18 7.8504622934e-17 -6.7513975723e-15
        0.0066762099923 1.921128271e-16 0.0066762099923 4.8365132091e-17 3.3658857083e-15 -1.5850574024e-14
        0.009 -1.4598261707e-16 0.009 -1.3150588624e-16 1.8056063275e-15 -1.076494642e-14
        0.011323790008 -1.8226988699e-16 0.011323790008 -4.1746994432e-16 6.113547511e-15 -5.8902999895e-15
        0.0066762099923 2.4684867706e-16 0.0066762099923 7.3779091616e-17 -3.2971941632e-15 -1.6387840038e-14
        0.009 -1.9776755169e-16 0.009 -2.0469838896e-17 2.355138688e-15 -8.2429854081e-15
        0.011323790008 -2.6557944883e-16 0.011323790008 -4.0469796899e-18 -1.2560739669e-15 5.8878467201e-17
        0.0066762099923 1.9974291807e-16 0.0066762099923 -2.7042709831e-17 0 -1.6230830792e-14
        0.009 -2.3597144187e-16 0.009 1.4782681197e-17 4.7102773761e-16 -8.1252284737e-15
        0.011323790008 -2.9488147019e-16 0.011323790008 2.9458213611e-17 -4.7102773761e-16 -1.3738309013e-16
        0.0066762099923 1.5263715908e-16 0.0066762099923 -5.4975187497e-17 2.9831756715e-15 -1.6127793474e-14
        0.009 -2.7417533204e-16 0.009 -1.064670023e-16 -2.0411201963e-15 -7.9878453836e-15
        0.011323790008 -3.2418349155e-16 0.011323790008 -1.2666876672e-16 2.8261664256e-15 4.3668196507e-16
        0.0066762099923 -7.6420592886e-17 0.0066762099923 -1.4656253807e-17 -1.177569344e-15 -2.1628023618e-14
        0.009 -2.8652440637e-16 0.009 -7.6009634199e-17 -1.2560739669e-15 -9.577563998e-15
        0.011323790008 -4.4827730885e-17 0.011323790008 3.952711234e-16 -4.5532681302e-15 2.4728956224e-15
        0.0066762099923 -5.0691810712e-17 0.0066762099923 -8.8584769802e-17 9.4205547521e-16 -2.0528958897e-14
        0.009 -1.6366271248e-16 0.009 4.4387644478e-18 9.4205547521e-16 -9.8915824897e-15
        0.011323790008 1.7516687473e-16 0.011323790008 8.9938595819e-17 1.5700924587e-16 2.7869141142e-15
        0.0066762099923 -2.4963028538e-17 0.0066762099923 -2.3191359109e-16 3.1401849174e-15 -2.0887136239e-14
        0.009 -4.0801018583e-17 0.009 -9.1241196232e-17 1.5700924587e-15 -9.0280316374e-15
        0.011323790008 3.9516148035e-16 0.011323790008 1.2029703947e-17 3.532708032e-15 2.470442353e-15
        0.00067620999228 3.1590865149e-16 0.00067620999228 1.3571166687e-16 -2.3355125323e-15 -2.286447143e-14
        0.003 2.0102795423e-16 0.003 1.2330419657e-16 -1.6485970816e-15 -2.1196248192e-14
        0.0053237900077 4.1626045689e-16 0.0053237900077 8.8142970993e-17 -5.2205574251e-15 -1.8978492594e-14
        0.00067620999228 -1.4004205649e-16 0.00067620999228 3.1590679753e-17 2.649531024e-16 -2.3198116077e-14
        0.003 -9.818088241e-17 0.003 5.9297048013e-17 -3.532708032e-16 -2.0568211209e-14
        0.0053237900077 2.7379349158e-16 0.0053237900077 -8.1537058051e-18 -5.2009312694e-16 -2.0313071184e-14
        0.00067620999228 -5.9599276446e-16 0.00067620999228 -2.501561217e-17 1.2168216555e-15 -2.3178489921e-14
        0.003 -3.9738971905e-16 0.003 -1.6101614019e-17 2.0018678848e-15 -2.1578958229e-14
        0.0053237900077 1.3132652626e-16 0.0053237900077 -6.067107455e-17 4.1803711712e-15 -1.996470692e-14
        0.00067620999228 -6.7626796719e-17 0.00067620999228 6.5157973163e-17 -2.5906525568e-15 -2.2099051356e-14
        0.003 3.7515372729e-17 0.003 2.8452463602e-17 2.0411201963e-15 -1.9626155734e-14
        0.0053237900077 3.2777250325e-16 0.0053237900077 4.6577845653e-17 -3.6897172779e-15 -1.6760736996e-14
        0.00067620999228 -2.3423091337e-16 0.00067620999227 -6.0469014703e-18 -7.8504622934e-17 -2.2354191381e-14
        0.003 -7.8059391444e-17 0.003 3.2830144908e-17 -3.1401849174e-16 -1.9626155734e-14
        0.0053237900077 2.6322709156e-16 0.0053237900077 -8.1169966246e-18 -7.0654160641e-16 -1.6701858529e-14
        0.00067620999228 -4.0083503002e-16 0.00067620999228 -3.0577754544e-18 1.8841109504e-15 -2.23124858e-14
        0.003 -1.9363415562e-16 0.003 9.941439674e-17 -2.355138688e-15 -1.9498585721e-14
        0.0053237900077 1.9868167986e-16 0.0053237900077 5.8068225006e-18 1.3345785899e-15 -1.642463908e-14
        0.00067620999228 -1.3140814728e-16 0.00067620999227 -6.6727457217e-17 -1.7271017046e-15 -3.5405584943e-14
        0.003 -6.9572463211e-17 0.003 2.5598335635e-17 -1.8841109504e-15 -3.1715867665e-14
        0.0053237900078 3.2379943096e-17 0.0053237900077 8.5663954031e-17 -5.1028004907e-15 -2.7299982625e-14
        0.00067620999228 -8.6656726139e-18 0.00067620999228 -5.8710758178e-17 -1.5700924587e-16 -3.4816800271e-14
        0.003 -1.5131549134e-18 0.003 -5.1288590664e-17 3.1401849174e-16 -3.1598110731e-14
        0.0053237900078 4.5756085022e-17 0.0053237900077 -9.1798107995e-17 3.1401849174e-16 -2.8006524232e-14
        0.00067620999228 1.1407680205e-16 0.00067620999228 -7.1659268227e-18 1.5700924587e-16 -3.5341799937e-14
        0.003 6.6546153384e-17 0.003 -2.6716634971e-17 1.2560739669e-15 -3.091119528e-14
        0.0053237900078 5.9132226949e-17 0.0053237900077 -2.2272093382e-16 2.8261664256e-15 -2.6882926816e-14
        -0.0053237900077 -4.8333613501e-17 -0.0053237900077 -3.0187455647e-17 -4.4453242736e-15 -1.9174754152e-14
        -0.003 3.8386282912e-18 -0.003 9.4420454564e-17 -1.0990647211e-15 -2.0803725078e-14
        -0.00067620999228 2.8602557397e-16 -0.00067620999227 1.2137565471e-16 -4.4649504294e-15 -2.2844845274e-14
        -0.0053237900077 9.3369213283e-17 -0.0053237900077 3.6809242889e-17 -2.4532694667e-16 -1.9704660356e-14
        -0.003 -1.3523816425e-16 -0.003 7.8608756775e-17 1.5700924587e-16 -2.0411201963e-14
        -0.00067620999228 -1.3383083791e-16 -0.00067620999227 2.9482730415e-17 -8.8317700801e-17 -2.32766207e-14
        -0.0053237900077 2.3507204007e-16 -0.0053237900077 -8.0909025375e-17 1.6485970816e-15 -1.9562370727e-14
        -0.003 -2.743149568e-16 -0.003 6.7773787216e-18 2.5514002454e-15 -2.1225687426e-14
        -0.00067620999228 -5.5368724978e-16 -0.00067620999228 -1.3653964909e-17 3.827100368e-15 -2.3153957227e-14
        -0.0053237900077 -7.8370908683e-17 -0.0053237900077 -3.2426430629e-17 -3.0616802944e-15 -1.6427092349e-14
        -0.003 -1.3630303939e-16 -0.003 9.5064029858e-17 1.8841109504e-15 -1.9547651111e-14
        -0.00067620999228 -9.4398317651e-17 -0.00067620999227 3.8730690261e-17 -1.8841109504e-15 -2.2354191381e-14
        -0.0053237900077 6.4933672118e-17 -0.0053237900077 -2.7307634724e-17 6.2803698347e-16 -1.6584101595e-14
        -0.003 -1.3475260204e-16 -0.003 3.2086977796e-17 1.5700924587e-16 -1.9469146488e-14
        -0.00067620999228 -2.3460202377e-16 -0.00067620999227 6.6892237359e-18 -1.5700924587e-16 -2.2452322159e-14
        -0.0053237900077 2.0823825292e-16 -0.0053237900077 1.1784774004e-16 1.2560739669e-15 -1.6454078313e-14
        -0.003 -1.332021647e-16 -0.003 5.5379874537e-17 -2.355138688e-15 -1.945933341e-14
        -0.00067620999228 -3.7480572988e-16 -0.00067620999228 2.8003866431e-17 2.2766340651e-15 -2.2140756937e-14
        -0.0053237900078 -1.4467003464e-16 -0.0053237900077 -2.5331304683e-16 -1.6485970816e-15 -2.7574748806e-14
        -0.003 -1.2386133644e-16 -0.003 -9.564741325e-17 -3.7682219008e-15 -3.1637363042e-14
        -0.00067620999228 -1.3339363726e-16 -0.00067620999227 -9.7272885087e-17 -5.3383143595e-15 -3.5091566452e-14
        -0.0053237900078 2.3630017871e-19 -0.0053237900077 -6.0145326636e-17 4.7102773761e-16 -2.6828954888e-14
        -0.003 1.8316330785e-17 -0.003 -1.688807065e-17 0 -3.18336246e-14
[...]
      <PointData>
        <DataArray type="Float64" Name="displacement" NumberOfComponents="3" format="ascii" RangeMin="5.4713519246e-17" RangeMax="1.203">
          -0.054 -3.6316248914e-17 0.97125 -0.06 6.3228270445e-18 1.19925
          -0.06 0 1.19925 -0.054 0 0.97125
          -0.108 1.2328726725e-16 0.969 -0.12 2.0319623229e-16 1.197
          -0.12 0 1.197 -0.108 0 0.969
          -9.8096959451e-16 8.1032780882e-17 0.972 -7.9304559536e-16 1.0753675022e-16 1.2
          -7.7254860541e-16 0 1.2 -9.5397846119e-16 0 0.972
          0.054 -6.8912426617e-17 0.97125 0.06 -5.3147700145e-18 1.19925
          0.06 0 1.19925 0.054 0 0.97125
          0.108 1.1330736961e-16 0.969 0.12 1.9374154247e-17 1.197
          0.12 0 1.197 0.108 0 0.969
          -0.054 -2.6841844227e-17 0.97125 -0.06 1.2200092734e-16 1.19925
          -0.108 2.8190915221e-17 0.969 -0.12 1.0339692316e-16 1.197
          -9.59910723e-16 4.8281203102e-17 0.972 -7.9568802169e-16 -4.1451399599e-18 1.2
          0.054 -3.6507913161e-17 0.97125 0.06 5.6652802961e-17 1.19925
          0.108 1.0239574876e-16 0.969 0.12 -5.0553143966e-17 1.197
          -0.054 3.083090308e-17 0.97125 -0.06 1.0244532964e-16 1.19925
          -0.108 -9.7817135979e-18 0.969 -0.12 -9.1362327941e-18 1.197
          -9.3398016659e-16 1.9928297424e-18 0.972 -7.6494022707e-16 1.4008216829e-16 1.2
          0.054 2.6172180007e-17 0.97125 0.06 9.3069170864e-17 1.19925
          0.108 -3.9972716749e-17 0.969 0.12 -1.6931630008e-16 1.197
          -0.054 0 0.97125 -0.06 0 1.19925
          -0.108 0 0.969 -0.12 0 1.197
          -9.593146352e-16 0 0.972 -7.6153903113e-16 0 1.2
          0.054 0 0.97125 0.06 0 1.19925
          0.108 0 0.969 0.12 0 1.197
          -0.048 -8.0201200962e-17 0.76725 -0.048 0 0.76725
          -0.096 1.3804482132e-17 0.765 -0.096 0 0.765
          -8.5322494472e-16 7.7163399341e-18 0.768 -8.6575033784e-16 0 0.768
          0.048 -7.4554432048e-17 0.76725 0.048 0 0.76725
          0.096 2.1151959005e-17 0.765 0.096 0 0.765
          -0.048 -8.103902057e-17 0.76725 -0.096 4.918646086e-17 0.765
          -8.7774846421e-16 3.9402850555e-18 0.768 0.048 1.0808916729e-17 0.76725
          0.096 6.7615002789e-17 0.765 -0.048 -6.1267893938e-17 0.76725
          -0.096 1.3317956208e-16 0.765 -8.7924057404e-16 -1.3740804189e-17 0.768
          0.048 2.3149246223e-17 0.76725 0.096 -4.0588748496e-17 0.765
          -0.048 0 0.76725 -0.096 0 0.765
          -8.7591832674e-16 0 0.768 0.048 0 0.76725
          0.096 0 0.765 -0.042 -2.45672375e-17 0.58725
          -0.042 0 0.58725 -0.084 9.4326412553e-17 0.585
          -0.084 0 0.585 -8.1825259912e-16 4.1959602791e-17 0.588
          -8.0496402973e-16 0 0.588 0.042 -3.1027688949e-17 0.58725
          0.042 0 0.58725 0.084 -4.2353316913e-17 0.585
          0.084 0 0.585 -0.042 2.0676768525e-17 0.58725
          -0.084 1.0078034042e-16 0.585 -8.1067689261e-16 1.8026149426e-17 0.588
          0.042 -3.1542519003e-17 0.58725 0.084 -7.3079266358e-17 0.585
          -0.042 -9.9411941726e-18 0.58725 -0.084 6.9415846283e-17 0.585
          -8.1110173506e-16 2.0231628411e-17 0.588 0.042 1.3891761108e-18 0.58725
          0.084 -2.6018011249e-18 0.585 -0.042 0 0.58725
          -0.084 0 0.585 -8.206532712e-16 0 0.588
          0.042 0 0.58725 0.084 0 0.585
          -0.036 -2.2384376075e-17 0.43125 -0.036 0 0.43125
          -0.072 4.3978730199e-17 0.429 -0.072 0 0.429
          -7.4786054999e-16 -4.2435566251e-18 0.432 -7.5506579895e-16 0 0.432
          0.036 -3.1696416739e-17 0.43125 0.036 0 0.43125
          0.072 -2.7411620202e-17 0.429 0.072 0 0.429
          -0.036 2.0769737376e-17 0.43125 -0.072 5.3992754297e-17 0.429
          -7.3962803835e-16 3.401966436e-17 0.432 0.036 9.4646643647e-18 0.43125
          0.072 -1.6698277741e-17 0.429 -0.036 6.3096409188e-18 0.43125
          -0.072 4.5758133697e-17 0.429 -7.4742825269e-16 -1.53338508e-17 0.432
          0.036 -1.2678864136e-17 0.43125 0.072 -6.004376058e-17 0.429
          -0.036 0 0.43125 -0.072 0 0.429
          -7.2401557545e-16 0 0.432 0.036 0 0.43125
          0.072 0 0.429 -0.03 -1.5680442143e-19 0.29925
          -0.03 0 0.29925 -0.06 -5.0422316836e-17 0.297
          -0.06 0 0.297 -6.808937317e-16 -4.5500048008e-17 0.3
          -6.8770758983e-16 0 0.3 0.03 -4.4185424503e-17 0.29925
          0.03 0 0.29925 0.06 -8.8618625774e-19 0.297
          0.06 0 0.297 -0.03 -3.9620033112e-18 0.29925
          -0.06 -6.1422990887e-17 0.297 -6.7177480941e-16 -5.1046092038e-17 0.3
          0.03 -8.0278091973e-18 0.29925 0.06 -1.0943245983e-17 0.297
          -0.03 -2.7151703677e-17 0.29925 -0.06 -5.0476265814e-17 0.297
          -6.7504785282e-16 -5.0107783981e-17 0.3 0.03 -2.010333645e-17 0.29925
          0.06 -2.0653146687e-17 0.297 -0.03 0 0.29925
          -0.06 0 0.297 -6.5815509007e-16 0 0.3
          0.03 0 0.29925 0.06 0 0.297
          -0.024 1.1309750182e-17 0.19125 -0.024 0 0.19125
          -0.048 8.798982506e-18 0.189 -0.048 0 0.189
          -5.5248260067e-16 5.7386768675e-18 0.192 -5.547896932e-16 0 0.192
          0.024 -6.2157540445e-18 0.19125 0.024 0 0.19125
          0.048 2.814376909e-17 0.189 0.048 0 0.189
          -0.024 9.808602423e-18 0.19125 -0.048 6.4056544959e-18 0.189
          -5.4982719391e-16 1.2148119241e-17 0.192 0.024 1.3099087278e-17 0.19125
          0.048 2.781839167e-17 0.189 -0.024 1.7842763026e-17 0.19125
          -0.048 -1.0577890873e-17 0.189 -5.4991246877e-16 3.7388763788e-18 0.192
          0.024 4.3490875184e-18 0.19125 0.048 2.002032747e-17 0.189
          -0.024 0 0.19125 -0.048 0 0.189
          -5.4289799413e-16 0 0.192 0.024 0 0.19125
          0.048 0 0.189 -0.018 -1.0509558162e-17 0.10725
          -0.018 0 0.10725 -0.036 6.1799901839e-18 0.105
          -0.036 0 0.105 -4.3108626154e-16 -3.4991061211e-18 0.108
          -4.3320799297e-16 0 0.108 0.018 6.1583635489e-18 0.10725
          0.018 0 0.10725 0.036 -1.5722399126e-17 0.105
          0.036 0 0.105 -0.018 -8.3994307844e-18 0.10725
          -0.036 1.8732063807e-17 0.105 -4.2697391226e-16 -3.1854375115e-18 0.108
          0.018 -5.0181990516e-18 0.10725 0.036 -1.9245555509e-17 0.105
          -0.018 6.8440857679e-18 0.10725 -0.036 2.7522255727e-18 0.105
          -4.2565498314e-16 -7.5576238197e-18 0.108 0.018 -8.6874692514e-18 0.10725
          0.036 -1.3225117375e-18 0.105 -0.018 0 0.10725
          -0.036 0 0.105 -4.2916667522e-16 0 0.108
          0.018 0 0.10725 0.036 0 0.105
          -0.012 2.9263572219e-17 0.04725 -0.012 0 0.04725
          -0.024 -6.9604070225e-18 0.045 -0.024 0 0.045
          -2.9010079327e-16 1.9827514222e-18 0.048 -2.8896596378e-16 0 0.048
          0.012 -2.6706297934e-17 0.04725 0.012 0 0.04725
          0.024 2.6118253107e-17 0.045 0.024 0 0.045
          -0.012 -7.6832259511e-19 0.04725 -0.024 -5.5242631267e-18 0.045
          -2.8930533235e-16 2.3891867511e-18 0.048 0.012 2.4523530145e-18 0.04725
          0.024 1.5203775334e-17 0.045 -0.012 3.1538648852e-18 0.04725
          -0.024 1.7021887326e-17 0.045 -2.8950090524e-16 6.4142429399e-18 0.048
          0.012 2.287347782e-18 0.04725 0.024 -8.8599977217e-18 0.045
          -0.012 0 0.04725 -0.024 0 0.045
          -2.8516566267e-16 0 0.048 0.012 0 0.04725
          0.024 0 0.045 -0.006 1.3683145189e-18 0.01125
          -0.006 0 0.01125 -0.012 -1.7935413153e-17 0.009
          -0.012 0 0.009 -1.487859465e-16 -4.4752933418e-18 0.012
          -1.4668211014e-16 0 0.012 0.006 -6.8141130235e-18 0.01125
          0.006 0 0.01125 0.012 1.6587317241e-17 0.009
          0.012 0 0.009 -0.006 8.1780650096e-17 0.01125
          -0.012 -5.2263889438e-17 0.009 -1.3999617411e-16 -4.4205642475e-19 0.011999976
          0.006 -8.6684933014e-17 0.01125 0.012 5.1884581158e-17 0.009
          -0.006 -5.8871034221e-17 0.01125 -0.012 5.4975159758e-17 0.009
          -1.4714182013e-16 1.1657116784e-18 0.011999976 0.006 5.9259820217e-17 0.01125
          0.012 -5.6609952668e-17 0.009 -0.006 0 0.01125
          -0.012 0 0.009 -1.4442137321e-16 0 0.012
          0.006 0 0.01125 0.012 0 0.009
          0 -2.3171803906e-17 -0.00075 0 0 -0.00075
          0 -6.8920614017e-17 -0.003 0 0 -0.003
          0 -4.518058365e-19 1.40063858e-15 0 0 1.4944518988e-15
          0 2.3918535971e-17 -0.00075 0 0 -0.00075
          0 7.1427077169e-17 -0.003 0 0 -0.003
          0 -1.8671311538e-18 -0.00075 0 -6.8664637013e-18 -0.003
          5.4711417621e-17 4.7955202928e-19 0 0 3.354115295e-18 -0.00075
          0 9.9102506765e-18 -0.003 0 5.1612232316e-17 -0.00075
          0 6.9807529858e-17 -0.003 0 2.7187932132e-19 1.2783579713e-15
          0 -5.1251344518e-17 -0.00075 0 -6.6307741546e-17 -0.003
          0 0 -0.00075 0 0 -0.003
          0 0 1.3940580816e-15 0 0 -0.00075
          0 0 -0.003 0.006 -2.4912407648e-17 0.01125
          0.006 0 0.01125 0.012 1.3237905151e-17 0.009
          0.012 0 0.009 5.8506273382e-16 1.2426541633e-18 0.012
          5.8467909629e-16 0 0.012 -0.006 2.4874467526e-17 0.01125
          -0.006 0 0.01125 -0.012 -1.1261787162e-17 0.009
          -0.012 0 0.009 0.006 -2.2934679612e-18 0.01125
          0.012 8.0437228701e-18 0.009 5.9170300079e-16 3.7882302563e-19 0.012
          -0.006 -6.5927669262e-19 0.01125 -0.012 -1.7836571223e-18 0.009
          0.006 1.4005305261e-17 0.01125 0.012 -9.3326198068e-18 0.009
          5.8401895133e-16 -2.3168074503e-18 0.012 -0.006 -1.4820363279e-17 0.01125
          -0.012 1.127508195e-17 0.009 0.006 0 0.01125
          0.012 0 0.009 5.8599160064e-16 0 0.012
          -0.006 0 0.01125 -0.012 0 0.009
          0.012 -2.4243255324e-18 0.04725 0.012 0 0.04725
          0.024 -5.1129454312e-18 0.045 0.024 0 0.045
          1.1522227627e-15 -7.0756275892e-18 0.048 1.1554244066e-15 0 0.048
          -0.012 -2.1239294784e-18 0.04725 -0.012 0 0.04725
          -0.024 -6.1287019351e-18 0.045 -0.024 0 0.045
          0.012 -7.8248738069e-18 0.04725 0.024 -2.9738748694e-18 0.045
          1.1525510528e-15 -4.1843709314e-18 0.048 -0.012 -1.6198790829e-18 0.04725
          -0.024 -1.9985915954e-18 0.045 0.012 -6.620699185e-18 0.04725
          0.024 4.5846746404e-18 0.045 1.1517369402e-15 -5.0227962882e-18 0.048
          -0.012 -1.8646788847e-19 0.04725 -0.024 -8.2088625741e-18 0.045
          0.012 0 0.04725 0.024 0 0.045
          1.1539013814e-15 0 0.048 -0.012 0 0.04725
          -0.024 0 0.045 0.018 -5.5787943199e-18 0.10725
          0.018 0 0.10725 0.036 2.6534192872e-17 0.105
          0.036 0 0.105 1.6717318072e-15 -4.1330492907e-20 0.108
          1.6692365887e-15 0 0.108 -0.018 1.3360383611e-18 0.10725
          -0.018 0 0.10725 -0.036 -2.1735976444e-17 0.105
          -0.036 0 0.105 0.018 1.6515267545e-18 0.10725
          0.036 3.1323653851e-17 0.105 1.6680187993e-15 1.9289532116e-18 0.108
          -0.018 -4.0414931637e-18 0.10725 -0.036 -1.5323214991e-17 0.105
          0.018 5.2971919562e-18 0.10725 0.036 1.3171759499e-17 0.105
          1.6705239164e-15 5.1466798665e-18 0.108 -0.018 -2.2659839649e-18 0.10725
          -0.036 -8.7167681935e-18 0.105 0.018 0 0.10725
          0.036 0 0.105 1.6759370028e-15 0 0.108
          -0.018 0 0.10725 -0.036 0 0.105
          0.024 -1.5495390025e-17 0.19125 0.024 0 0.19125
          0.048 4.5260211219e-18 0.189 0.048 0 0.189
          2.179687244e-15 2.4685363471e-18 0.192 2.18753808e-15 0 0.192
          -0.024 -1.088197867e-17 0.19125 -0.024 0 0.19125
          -0.048 6.7451278939e-18 0.189 -0.048 0 0.189
          0.024 -1.1254433932e-17 0.19125 0.048 1.4072237212e-17 0.189
          2.1822067341e-15 -1.0702330192e-17 0.192 -0.024 -2.6149138007e-18 0.19125
          -0.048 -1.5148233216e-17 0.189 0.024 -1.2479283863e-17 0.19125
          0.048 -1.9312521709e-17 0.189 2.1867242825e-15 -1.5920602582e-18 0.192
          -0.024 -1.8190255824e-18 0.19125 -0.048 -2.8065824681e-17 0.189
          0.024 0 0.19125 0.048 0 0.189
          2.1848153078e-15 0 0.192 -0.024 0 0.19125
          -0.048 0 0.189 0.03 -1.0541130478e-17 0.29925
          0.03 0 0.29925 0.06 5.3284482082e-17 0.297
          0.06 0 0.297 2.6344117206e-15 -1.3326751351e-17 0.3
          2.6249527153e-15 0 0.3 -0.03 -3.9742430995e-17 0.29925
          -0.03 0 0.29925 -0.06 -4.2310938485e-17 0.297
          -0.06 0 0.297 0.03 -1.9070316842e-17 0.29925
          0.06 6.2596696407e-17 0.297 2.6317915786e-15 1.4303178779e-17 0.3
          -0.03 -3.2076887445e-17 0.29925 -0.06 1.0268131316e-17 0.297
          0.03 -2.1105053467e-17 0.29925 0.06 4.5679831371e-17 0.297
          2.6263458272e-15 8.5157946549e-19 0.3 -0.03 -3.956018055e-17 0.29925
          -0.06 -2.9173900765e-18 0.297 0.03 0 0.29925
          0.06 0 0.297 2.6246138602e-15 0 0.3
          -0.03 0 0.29925 -0.06 0 0.297
          0.036 -2.9046813941e-17 0.43125 0.036 0 0.43125
          0.072 3.3483720829e-17 0.429 0.072 0 0.429
          2.933451387e-15 -2.241901017e-17 0.432 2.9393866478e-15 0 0.432
          -0.036 1.0050586559e-18 0.43125 -0.036 0 0.43125
          -0.072 -1.7529094334e-18 0.429 -0.072 0 0.429
          0.036 -3.8570073074e-17 0.43125 0.072 9.6008037366e-17 0.429
          2.9433819823e-15 -1.7440704978e-17 0.432 -0.036 -1.2535563756e-17 0.43125
          -0.072 -3.9270084279e-17 0.429 0.036 -3.9709434734e-17 0.43125
          0.072 6.0720939698e-17 0.429 2.9403755317e-15 1.1145734979e-17 0.432
          -0.036 -1.863148366e-17 0.43125 -0.072 -5.7768966696e-20 0.429
          0.036 0 0.43125 0.072 0 0.429
          2.9441732196e-15 0 0.432 -0.036 0 0.43125
          -0.072 0 0.429 0.042 2.801549444e-17 0.58725
          0.042 0 0.58725 0.084 7.3241988228e-17 0.585
          0.084 0 0.585 3.2678915886e-15 4.4237719762e-17 0.588
          3.2719257907e-15 0 0.588 -0.042 2.731829131e-20 0.58725
          -0.042 0 0.58725 -0.084 -3.0460375178e-17 0.585
          -0.084 0 0.585 0.042 -6.0815385421e-17 0.58725
          0.084 7.845291874e-17 0.585 3.2817734047e-15 5.5560234208e-17 0.588
          -0.042 -1.7335083935e-17 0.58725 -0.084 3.2014554007e-17 0.585
          0.042 -3.2402188744e-17 0.58725 0.084 -3.1378710385e-18 0.585
          3.2741286599e-15 3.2927066399e-17 0.588 -0.042 -2.3240459737e-17 0.58725
          -0.084 5.9263566546e-17 0.585 0.042 0 0.58725
          0.084 0 0.585 3.2668632634e-15 0 0.588
          -0.042 0 0.58725 -0.084 0 0.585
          0.048 -1.5260480012e-17 0.76725 0.048 0 0.76725
          0.096 -3.8296659501e-17 0.765 0.096 0 0.765
          3.5992356527e-15 -7.4539516567e-17 0.768 3.6332646459e-15 0 0.768
          -0.048 -9.1699645097e-17 0.76725 -0.048 0 0.76725
          -0.096 4.5313993459e-17 0.765 -0.096 0 0.765
          0.048 7.7594833677e-17 0.76725 0.096 1.2584411962e-17 0.765
          3.6287582293e-15 -2.5345508314e-17 0.768 -0.048 -2.6932369829e-17 0.76725
          -0.096 -2.6720989703e-17 0.765 0.048 8.0488587955e-18 0.76725
          0.096 5.0319213242e-17 0.765 3.6165278957e-15 -2.4240062104e-17 0.768
          -0.048 3.3684211329e-17 0.76725 -0.096 -7.6737397346e-17 0.765
          0.048 0 0.76725 0.096 0 0.765
          3.6351407511e-15 0 0.768 -0.048 0 0.76725
          -0.096 0 0.765 0.054 1.4684714842e-17 0.97125
          0.054 0 0.97125 0.108 2.5689968282e-17 0.969
          0.108 0 0.969 3.6305881607e-15 4.0081771955e-17 0.972
          3.5996708871e-15 0 0.972 -0.054 3.9945746231e-17 0.97125
          -0.054 0 0.97125 -0.108 -7.5870974475e-17 0.969
          -0.108 0 0.969 0.054 -8.6352208566e-19 0.97125
          0.108 7.078904675e-17 0.969 3.6062932907e-15 2.4232533701e-17 0.972
          -0.054 6.5153686885e-17 0.97125 -0.108 9.2054598565e-17 0.969
          0.054 -7.2905241709e-18 0.97125 0.108 1.3027942473e-16 0.969
          3.6263004106e-15 -1.1271948791e-17 0.972 -0.054 3.1088956782e-17 0.97125
          -0.108 3.4979208133e-17 0.969 0.054 0 0.97125
          0.108 0 0.969 3.6690336213e-15 0 0.972
          -0.054 0 0.97125 -0.108 0 0.969
          0.06 -3.2477211845e-17 1.19925 0.06 0 1.19925
          0.12 -5.6976672349e-17 1.197 0.12 0 1.197
          3.7912212641e-15 8.9880138508e-17 1.2 3.7569360276e-15 0 1.2
          -0.06 1.0915349042e-17 1.19925 -0.06 0 1.19925
          -0.12 9.4714975832e-17 1.197 -0.12 0 1.197
          0.06 6.2896399297e-17 1.19925 0.12 -5.4848260991e-17 1.197
          3.7959241714e-15 3.4313903018e-17 1.2 -0.06 -1.3210289825e-16 1.19925
          -0.12 1.1239039066e-16 1.197 0.06 3.6555752315e-17 1.19925
          0.12 5.1806450878e-18 1.197 3.8013719481e-15 5.4928701135e-17 1.2
          -0.06 9.1548971188e-17 1.19925 -0.12 1.2700141087e-16 1.197
          0.06 0 1.19925 0.12 0 1.197
          3.8433357259e-15 0 1.2 -0.06 0 1.19925
          -0.12 0 1.197 -0.09 0 1.1983125
          -0.03 0 1.1998125 0.03 0 1.1998125
          0.09 0 1.1983125 -0.12 1.7116158412e-16 1.197
          -0.06 -4.4469907951e-18 1.19925 -7.8280892931e-16 6.8462362801e-17 1.2
          0.06 1.6791536857e-20 1.19925 0.12 3.589413603e-17 1.197
          -0.09 -4.2314079689e-17 1.1983125 -0.03 1.5984466134e-17 1.1998125
          0.03 8.0097608798e-18 1.1998125 0.09 -4.6090371712e-17 1.1983125
          -0.12 2.1184427758e-16 1.197 -0.06 7.7405376992e-17 1.19925
          -7.687774918e-16 5.2636670862e-17 1.2 0.06 5.9512718096e-17 1.19925
          0.12 -6.9559375742e-18 1.197 -0.09 -4.3462571823e-17 1.1983125
          -0.03 -1.5536456079e-17 1.1998125 0.03 2.6646322761e-17 1.1998125
          0.09 -9.6363322375e-17 1.1983125 -0.12 6.4071954934e-17 1.197
          -0.06 1.4616200486e-16 1.19925 -7.9624289959e-16 3.5684045225e-17 1.2
          0.06 1.0248869782e-16 1.19925 0.12 -1.0064137914e-16 1.197
          -0.09 -4.4200977453e-17 1.1983125 -0.03 5.6965731289e-17 1.1998125
          0.03 -6.9106177001e-18 1.1998125 0.09 -4.4940188136e-17 1.1983125
          -0.12 2.6836395855e-17 1.197 -0.06 8.0416628123e-17 1.19925
          -7.5285076656e-16 5.1806085769e-17 1.2 0.06 7.0359725645e-17 1.19925
          0.12 -8.0773883144e-17 1.197 -0.09 0 1.1983125
          -0.03 0 1.1998125 0.03 0 1.1998125
          0.09 0 1.1983125 -0.114 0 1.08
          -0.057 0 1.08225 -8.8152972034e-16 0 1.083
          0.057 0 1.08225 0.114 0 1.08
          -0.114 5.6374655785e-17 1.08 -0.057 -2.7945381364e-17 1.08225
          -8.9722305115e-16 2.6345139557e-17 1.083 0.057 6.9955237797e-17 1.08225
          0.114 -2.3640262446e-18 1.08 -0.114 -7.8154522131e-18 1.08
          -0.057 -4.6458478143e-17 1.08225 -8.6784817979e-16 8.0012272897e-17 1.083
          0.057 1.2120612802e-17 1.08225 0.114 8.450092223e-17 1.08
          -0.114 1.888865472e-18 1.08 -0.057 -4.6644789211e-17 1.08225
          -8.5578346499e-16 5.8358865931e-17 1.083 0.057 2.5977151321e-17 1.08225
          0.114 -1.2718768782e-17 1.08 -0.114 0 1.08
          -0.057 0 1.08225 -8.4151964316e-16 0 1.083
          0.057 0 1.08225 0.114 0 1.08
          -0.081 0 0.9703125 -0.027 0 0.9718125
          0.027 0 0.9718125 0.081 0 0.9703125
          -0.108 2.8556414913e-17 0.969 -0.054 -1.0572612428e-17 0.97125
          -9.6761066777e-16 8.0033695826e-18 0.972 0.054 -4.4724065057e-17 0.97125
          0.108 3.7642221052e-17 0.969 -0.081 2.2717576725e-17 0.9703125
          -0.027 1.9890399182e-17 0.9718125 0.027 -1.3991230703e-17 0.9718125
          0.081 2.4737132018e-18 0.9703125 -0.108 3.6342600438e-17 0.969
          -0.054 -2.3397950061e-17 0.97125 -9.880416711e-16 3.782324892e-17 0.972
          0.054 -7.2800292342e-17 0.97125 0.108 9.1389602292e-17 0.969
          -0.081 4.6082880079e-17 0.9703125 -0.027 3.9408072868e-18 0.9718125
          0.027 -1.5652984003e-17 0.9718125 0.081 8.8139969854e-18 0.9703125
          -0.108 -5.4053267785e-17 0.969 -0.054 1.8088993513e-17 0.97125
          -9.4330292824e-16 -5.3695080219e-18 0.972 0.054 -1.3456398253e-17 0.97125
          0.108 4.1749010046e-18 0.969 -0.081 3.5983379061e-17 0.9703125
          -0.027 1.2195238902e-17 0.9718125 0.027 1.5322763707e-17 0.9718125
          0.081 -1.7709866233e-17 0.9703125 -0.108 -4.684848541e-17 0.969