<?xml version="1.0"?>
<VTKFile type="UnstructuredGrid" version="0.1" byte_order="LittleEndian" header_type="UInt32">
  <UnstructuredGrid>
    <FieldData>
      <DataArray type="Int8" Name="IntegrationPointMetaData" NumberOfTuples="237" format="ascii" RangeMin="34" RangeMax="125">
        123 34 105 110 116 101
        103 114 97 116 105 111
        110 95 112 111 105 110
        116 95 97 114 114 97
        121 115 34 58 91 123
        34 105 110 116 101 103
        114 97 116 105 111 110
        95 111 114 100 101 114
        34 58 50 44 34 110
        97 109 101 34 58 34
        115 105 103 109 97 95
        105 112 34 44 34 110
        117 109 98 101 114 95
        111 102 95 99 111 109
        112 111 110 101 110 116
        115 34 58 54 125 44
        123 34 105 110 116 101
        103 114 97 116 105 111
        110 95 111 114 100 101
        114 34 58 50 44 34
        110 97 109 101 34 58
        34 101 112 115 105 108
        111 110 95 105 112 34
        44 34 110 117 109 98
        101 114 95 111 102 95
        99 111 109 112 111 110
        101 110 116 115 34 58
        54 125 44 123 34 105
        110 116 101 103 114 97
        116 105 111 110 95 111
        114 100 101 114 34 58
        50 44 34 110 97 109
        101 34 58 34 101 112
        115 105 108 111 110 95
        109 95 105 112 34 44
        34 110 117 109 98 101
        114 95 111 102 95 99
        111 109 112 111 110 101
        110 116 115 34 58 54
        125 93 125
      </DataArray>
      <DataArray type="Int8" Name="OGS_VERSION" NumberOfTuples="41" format="ascii" RangeMin="45" RangeMax="121">
        54 46 50 46 48 45
        49 48 49 45 103 55
        51 53 48 48 48 50
        98 49 46 100 105 114
        116 121 46 50 48 49
        57 48 52 50 54 49
        52 51 56 53 55
      </DataArray>
      <DataArray type="Float64" Name="epsilon_ip" NumberOfComponents="6" NumberOfTuples="4320" format="ascii" RangeMin="1.1270166529e-06" RangeMax="0.00019887298335">
        -0.00019887298335 -1.2441526789e-20 -7.6700181223e-20 8.5051818996e-19 2.8819897236e-20 -8.0783714153e-19
        -0.00019887298335 -1.1119759964e-20 -2.5155457678e-20 8.4605018515e-19 1.5680043091e-20 9.9721916233e-21
        -0.00019887298335 -3.3537091393e-20 2.6389265867e-20 8.4564226756e-19 7.701108581e-21 8.4706821793e-19
        -0.00019887298335 -4.3842372171e-20 -4.3779554957e-20 1.4098114661e-21 5.596984734e-21 -8.4519644912e-19
        -0.00019887298335 -2.5753177317e-20 -2.5566706815e-21 -7.3924378471e-21 9.7546271847e-21 7.5910744613e-22
        -0.00019887298335 -3.1403080717e-20 3.8666213594e-20 1.1118071737e-20 1.907318927e-20 8.5499326696e-19
        -0.00019887298335 -7.5243217553e-20 -2.171482363e-20 -7.9842634114e-19 -2.6009641783e-20 -8.5591745031e-19
        -0.00019887298335 -4.038659467e-20 9.186221377e-21 -8.3533557157e-19 -4.5545027365e-21 -8.3189231871e-21
        -0.00019887298335 -2.926907004e-20 4.0087266384e-20 -8.2137990007e-19 2.2061555944e-20 8.4183512852e-19
        -0.000195 -3.0274554797e-20 -4.5960990847e-20 3.7700014754e-18 7.5223065251e-21 -3.6870534516e-18
        -0.000195 -2.6872690313e-20 -6.2689126075e-21 3.7269302832e-18 2.8638646444e-21 8.8383279783e-21
        -0.000195 -2.6053552014e-20 3.3423165632e-20 3.7295456988e-18 3.8143573851e-22 3.7487147152e-18
        -0.000195 -1.4200002513e-20 -3.5749043183e-20 1.0674892261e-20 1.8213481598e-21 -3.7284009908e-18
        -0.000195 -1.6006618398e-20 -4.0899089311e-22 -3.9517766065e-21 4.8677742551e-22 1.4358571322e-20
        -0.000195 -2.0395960467e-20 3.4931061397e-20 7.5364279409e-21 1.328219666e-21 3.7793494708e-18
        -0.000195 1.8745497719e-21 -2.9602111628e-20 -3.7011762932e-18 -1.275370021e-21 -3.7493991223e-18
        -0.000195 -5.140546482e-21 1.3859147125e-21 -3.7093343472e-18 7.1393039104e-22 9.0577424927e-21
        -0.000195 -1.473836892e-20 3.2373941053e-20 -3.710949262e-18 4.8792437779e-21 3.7700343426e-18
        -0.00019112701666 -4.6266181181e-20 -1.3957651155e-20 6.6658265225e-18 -1.36874101e-20 -6.6261640358e-18
        -0.00019112701666 -4.2744130239e-20 1.3881781778e-20 6.6641109989e-18 -9.778325342e-21 1.8362066193e-20
        -0.00019112701666 -2.0648433411e-20 4.1721214712e-20 6.6110533591e-18 -6.6781342692e-21 6.6527569835e-18
        -0.00019112701666 1.728376877e-20 -2.6626610841e-20 1.1854246054e-20 -8.8645872788e-22 -6.672697692e-18
        -0.00019112701666 -6.3785690544e-21 2.8306094625e-21 6.8677011577e-22 -7.6271282729e-21 3.5499450901e-20
        -0.00019112701666 -1.1467260993e-20 3.2287829766e-20 4.8531982563e-21 -1.5176691503e-20 6.6785500796e-18
        -0.00019112701666 8.0833718721e-20 -3.6569707807e-20 -6.6114130294e-18 2.5506687027e-20 -6.6533622923e-18
        -0.00019112701666 2.998699213e-20 -5.4947001333e-21 -6.6372379694e-18 8.1162631796e-21 1.09494751e-20
        -0.00019112701666 -2.2860885759e-21 2.5580307541e-20 -6.5978233817e-18 -1.0083054353e-20 6.6392376967e-18
        -0.00019887298335 -1.4221745408e-20 2.1605213143e-20 8.4943598887e-19 5.357586273e-22 -8.4457728601e-19
        -0.00019887298335 -1.7306801368e-20 2.5155457678e-20 8.5594779804e-19 9.2755680142e-21 3.4047550844e-21
        -0.00019887298335 -1.7684056883e-20 2.8705702213e-20 8.5318249255e-19 2.7774538194e-20 8.8095018413e-19
        -0.00019887298335 5.0669911068e-20 1.8524747733e-20 -2.0979429412e-20 1.2215888598e-20 -8.626801828e-19
        -0.00019887298335 3.4242372638e-21 2.5566706815e-21 -8.7152438293e-22 1.4173850294e-20 -9.1870913638e-21
        -0.00019887298335 -4.1113636095e-20 -1.341140637e-20 8.3369188842e-21 2.5890972783e-20 8.4870795323e-19
        -0.00019887298335 1.1556156754e-19 2.6300177261e-20 -9.4863070384e-19 4.5976327491e-20 -8.6023974658e-19
        -0.00019887298335 2.4155275896e-20 -9.186221377e-21 -8.5451736424e-19 4.1152441496e-20 -1.2060800414e-20
        -0.00019887298335 -6.4543215308e-20 -4.4672620015e-20 -7.941883008e-19 4.6087716293e-20 8.3052623118e-19
        -0.000195 -1.057282554e-20 2.2452237225e-20 3.7495171439e-18 1.2919017035e-21 -3.7574669173e-18
        -0.000195 -1.6264197098e-20 6.2689126075e-21 3.7568579731e-18 5.591042051e-21 5.8645478848e-21
        -0.000195 -2.7458485462e-20 -9.9144120098e-21 3.7917566663e-18 1.0785649715e-20 3.7755418962e-18
        -0.000195 5.4681731691e-21 1.8383250143e-20 -4.4260330088e-20 2.0013573191e-21 -3.7852030155e-18
        -0.000195 4.5301121539e-22 4.0899089311e-22 -1.3083165694e-21 7.0194480153e-21 -2.5534764533e-20
        -0.000195 -1.0065067545e-20 -1.7565268357e-20 1.7866966258e-20 1.2933006028e-20 3.7524881741e-18
        -0.000195 2.1509171878e-20 1.837927917e-20 -3.8964715457e-18 2.3727081325e-21 -3.8385143718e-18
        -0.000195 1.7170219528e-20 -1.3859147125e-21 -3.7874461462e-18 8.1097491775e-21 -3.7808012078e-20
        -0.000195 7.3283503725e-21 -2.1151108595e-20 -3.7044187673e-18 1.4742257539e-20 3.7629605998e-18
        -0.00019112701666 -1.1039042227e-20 2.2035111991e-20 6.6519940698e-18 1.6084759238e-21 -6.6895227162e-18
        -0.00019112701666 -1.6487808704e-20 -1.3881781778e-20 6.7080793385e-18 1.3808328575e-21 -7.3715380549e-21
        -0.00019112701666 -3.5650209239e-20 -4.9798675548e-20 6.7162556857e-18 -6.8150363695e-21 6.691695547e-18
        -0.00019112701666 -4.3848701286e-20 1.7149831986e-20 -6.3947574319e-20 -1.0077203155e-20 -6.7652243514e-18
        -0.00019112701666 -3.7844307102e-21 -2.8306094625e-21 -2.9429942377e-21 -2.0850978327e-21 -4.7517762297e-20
        -0.00019112701666 2.2566205807e-20 -2.2811050911e-20 2.1108114852e-20 -2.0612186707e-21 6.6394979982e-18
        -0.00019112701666 -7.6658360344e-20 9.53868926e-21 -6.7951990827e-18 -4.4519400761e-20 -6.7694725205e-18
        -0.00019112701666 8.9189472838e-21 5.4947001333e-21 -6.6988129895e-18 -2.8307547049e-20 -6.226976007e-20
        -0.00019112701666 8.0782620854e-20 1.4507110066e-21 -6.6380080007e-18 -2.0063919498e-20 6.6555652762e-18
        -0.00019887298335 5.0460075439e-20 -1.5444013581e-20 8.9093690043e-19 -3.491105055e-20 -8.6567301121e-19
        -0.00019887298335 9.488092312e-21 9.6362752175e-21 8.5581233737e-19 -8.918852241e-21 -5.9395892762e-21
        -0.00019887298335 -7.7447925615e-21 3.4716564016e-20 8.5747752182e-19 2.1913916554e-20 8.570257001e-19
        -0.00019887298335 4.3842372171e-20 -5.6242910284e-21 1.0357319117e-20 -8.3061578084e-21 -8.7669558506e-19
        -0.00019887298335 2.5753177317e-20 9.7748567987e-21 -7.4594734591e-21 3.2390850053e-21 1.5330704608e-21
        -0.00019887298335 3.1403080717e-20 2.5174004626e-20 -4.8513486585e-21 1.9624898305e-20 8.6566675905e-19
        -0.00019887298335 3.7224668903e-20 9.350244262e-21 -8.4624135409e-19 6.8573407971e-21 -8.9222283587e-19
        -0.00019887298335 4.2018262322e-20 1.5068251118e-20 -8.504220484e-19 3.9556281151e-21 -1.0573106471e-21
        -0.00019887298335 7.0550953995e-20 2.0786257973e-20 -8.4545164218e-19 5.8944859189e-21 8.5858094044e-19
        -0.000195 -4.0616164349e-21 -2.8784192725e-20 3.770380169e-18 6.0457114112e-21 -3.7526140799e-18
        -0.000195 -2.2963473454e-20 1.6961619557e-21 3.7280702179e-18 8.970993521e-21 -5.5794798495e-21
        -0.000195 -3.9282604289e-20 3.2176516637e-20 3.7306357413e-18 1.0592567371e-20 3.7753743296e-18
        -0.000195 1.4200002513e-20 -3.1825810224e-20 4.3493600196e-21 6.8314328132e-21 -3.7731580677e-18
        -0.000195 1.6006618398e-20 1.2619609757e-21 -1.1206125109e-20 1.0269708201e-20 1.0970253588e-20
        -0.000195 2.0395960467e-20 3.4349732176e-20 -2.1010790013e-20 1.2404275329e-20 3.8033415408e-18
        -0.000195 3.246162146e-20 -3.8476140464e-20 -3.7463852106e-18 -2.7370822369e-21 -3.7994046179e-18
        -0.000195 5.4976710249e-20 -2.7809527445e-21 -3.7134028355e-18 1.2141864292e-21 8.5971200576e-21
        -0.000195 8.0074525223e-20 3.2914234975e-20 -3.744939317e-18 3.8617468357e-21 3.8347480421e-18
        -0.00019112701666 -6.0424709933e-20 -4.1094813145e-20 6.6207747146e-18 4.9877323926e-20 -6.7210113614e-18
[...]
      <PointData>
        <DataArray type="Float64" Name="HeatFlux" format="ascii" RangeMin="-0.026666666667" RangeMax="0.026666666666">
          3.6862873865e-16 0.013333333333 0.0066666666667 1.118896642e-16 1.8127860324e-16 0.0066666666667
          0.0033333333334 8.3266726847e-17 1.6002824066e-16 0.0066666666667 0.0033333333334 9.2374025096e-17
          1.7000290065e-16 0.0066666666667 8.8037216406e-17 0.0033333333334 7.0689981646e-17 0.0033333333334
          7.077671782e-16 5.3386114973e-16 4.3454823073e-16 1.9559007192e-16 5.0437085064e-16 1.9081958236e-16
          4.3368086899e-16 1.7650811368e-16 2.0946785972e-16 1.4419888894e-15 5.5424415057e-16 7.0820085907e-16
          3.7123082386e-16 5.399326819e-16 3.5822039779e-16 5.412337245e-16 3.5214886562e-16 3.0097452308e-16
          1.6935237934e-15 1.1778772402e-15 1.0122111482e-15 4.7965104111e-16 1.1557595159e-15 5.0437085064e-16
          1.0321604682e-15 4.4582393333e-16 4.475586568e-16 2.7746901998e-15 1.1141261524e-15 1.1943571132e-15
          6.5052130349e-16 1.1713720272e-15 6.0021432269e-16 1.3843093338e-15 7.3378803034e-16 6.4878658002e-16
          3.2933725191e-15 1.7668158603e-15 1.5595164049e-15 8.2399365109e-16 1.8327353524e-15 8.6042284408e-16
          1.658395643e-15 8.2399365109e-16 9.1419927184e-16 4.4469636307e-15 2.0660556599e-15 2.3973878438e-15
          1.1492543028e-15 2.1206994494e-15 1.1891529428e-15 2.1475876633e-15 1.1397133237e-15 1.2160411567e-15
          5.5268289945e-15 2.8570895649e-15 2.8562222032e-15 1.3123183096e-15 2.9091312692e-15 1.4059933773e-15
          2.850150671e-15 1.3530843113e-15 1.3548190347e-15 6.733329172e-15 3.230922474e-15 3.3801086929e-15
          1.6679366222e-15 3.3592920112e-15 1.734723476e-15 3.3219954565e-15 1.5803330866e-15 1.8787055245e-15
          7.5876804839e-15 3.7773603689e-15 4.0072112295e-15 1.9992688061e-15 4.0635897425e-15 2.0235549347e-15
          4.114764085e-15 2.0851376181e-15 1.9186041644e-15 8.9190807517e-15 4.6438547452e-15 4.5224241019e-15
          2.2030988145e-15 4.4894643558e-15 2.2707530301e-15 4.6108949991e-15 2.0816681712e-15 2.1614654511e-15
          9.984200966e-15 4.5762005296e-15 5.1937620871e-15 2.4312149516e-15 5.124373148e-15 2.2846308179e-15
          5.0688619968e-15 2.5084101463e-15 2.6055546609e-15 1.1208048378e-14 5.9136723296e-15 5.2874371548e-15
          2.6957602817e-15 5.6638721491e-15 2.6784130469e-15 5.3256010712e-15 2.9420910153e-15 2.7235158573e-15
          1.2224596335e-14 5.7748944515e-15 6.2051058736e-15 2.9577035265e-15 5.885916754e-15 3.1190328098e-15
          5.7003013421e-15 2.8969882049e-15 3.0392355299e-15 1.2264494975e-14 6.7203187459e-15 6.3057198352e-15
          3.0218882952e-15 6.0576543781e-15 2.99933689e-15 6.4566407776e-15 3.1120939159e-15 2.9802549317e-15
          1.3275838762e-14 6.6578687008e-15 6.676950659e-15 3.4104663538e-15 6.5208255462e-15 3.0704605525e-15
          6.5364380575e-15 2.9941327195e-15 3.0982161281e-15 1.3312267955e-14 6.676950659e-15 6.713379852e-15
          3.2404634531e-15 6.6700117651e-15 3.1797481315e-15 6.8382799423e-15 3.2439329001e-15 3.7192471325e-15
          1.3178694247e-14 6.246739237e-15 6.5364380575e-15 3.5561831258e-15 6.0385724199e-15 3.2560759644e-15
          6.5156213758e-15 3.2335245592e-15 3.1225022568e-15 1.2462253451e-14 6.6665423182e-15 6.4583755011e-15
          3.2595454114e-15 6.2883726004e-15 3.1190328098e-15 6.3941907325e-15 3.1155633629e-15 3.6706748752e-15
          1.1863773852e-14 5.9327542878e-15 5.6846888308e-15 2.9524993561e-15 6.140921105e-15 3.1537272793e-15
          6.3907212855e-15 3.0635216586e-15 3.2543412409e-15 1.192275445e-14 6.1721461275e-15 6.3074545587e-15
          3.2022995367e-15 6.1964322562e-15 2.8952534814e-15 6.0090821208e-15 2.7339241981e-15 3.032296636e-15
          1.2032042029e-14 5.5719318048e-15 5.8408139436e-15 3.2248509418e-15 6.4566407776e-15 3.0739299994e-15
          5.3637649877e-15 2.9351521214e-15 2.7269853042e-15 1.0644263249e-14 5.597952657e-15 5.6326471265e-15
          2.8345381597e-15 5.0289633569e-15 3.1502578324e-15 5.8841820305e-15 2.7963742433e-15 2.3731017151e-15
          1.0267828254e-14 4.6438547452e-15 5.2145787688e-15 2.8085173076e-15 4.8693687971e-15 2.562186574e-15
          5.0723314438e-15 2.3592239273e-15 2.6922908347e-15 9.6849611664e-15 5.0098813986e-15 5.5077470362e-15
          2.2724877535e-15 5.0133508456e-15 2.3765711621e-15 4.982125823e-15 2.7824964555e-15 2.6298407896e-15
          9.2564844678e-15 4.9925341639e-15 4.5866088705e-15 1.94635974e-15 4.9543702474e-15 2.7339241981e-15
          4.5310977193e-15 2.0608514895e-15 2.3869795029e-15 8.3995310707e-15 3.8753722453e-15 4.3159920082e-15
          1.6757428778e-15 3.3861802251e-15 1.8318679906e-15 4.2396641753e-15 2.4771851237e-15 2.0469737017e-15
          8.666678486e-15 4.1772141302e-15 3.8094527532e-15 1.949829187e-15 4.329869796e-15 1.7867651803e-15
          4.1702752362e-15 1.8318679906e-15 2.2065682614e-15 6.9805272673e-15 3.2196467714e-15 3.6359804056e-15
          2.5777990853e-15 3.8406777758e-15 1.9532986339e-15 3.7608804959e-15 1.8873791419e-15 1.6375789613e-15
          7.3933914546e-15 3.4104663538e-15 3.1433189385e-15 1.9186041644e-15 4.0106806765e-15 1.9914625504e-15
          3.5735303605e-15 1.0685896612e-15 1.3461454174e-15 7.2893080461e-15 3.7435332612e-15 3.1710745141e-15
          1.5057399771e-15 4.0488445929e-15 1.7555401577e-15 2.7616797738e-15 1.5612511284e-15 1.6375789613e-15
          7.8617667931e-15 2.8657631823e-15 3.0878077872e-15 1.5126788711e-15 3.1884217488e-15 2.0296264669e-15
          3.3514857556e-15 1.4294121442e-15 1.4571677198e-15 5.3117232834e-15 3.1225022568e-15 2.671474153e-15
          1.3253287356e-15 2.3904489499e-15 1.2524703497e-15 3.1988300897e-15 8.4654505628e-16 1.2628786905e-15
          5.776629175e-15 2.7547408799e-15 2.4667767828e-15 9.9226182826e-16 1.7694179455e-15 9.1246454836e-16
          1.6167622796e-15 1.158795282e-15 1.1241008124e-15 4.3715031595e-15 2.6159630018e-15 2.7963742433e-15
          7.8062556419e-16 1.9845236565e-15 1.0755285551e-15 1.5473733406e-15 1.8457457784e-15 9.8532293435e-16
          4.2257863875e-15 2.7026991756e-15 2.1337098755e-15 1.0408340856e-15 2.2967738822e-15 1.3773704399e-15
          1.9984014443e-15 8.6736173799e-16 1.1934897515e-15 3.2925051574e-15 1.1934897515e-15 7.8062556419e-16
          8.1878948066e-16 1.7867651803e-15 1.2316536679e-15 1.2143064332e-15 1.734723476e-16 1.0269562978e-15
          2.1406487694e-15 5.1000870194e-16 9.5409791179e-16 7.3552275381e-16 5.3776427755e-16 -1.0755285551e-16
          1.734723476e-16 7.4940054162e-16 2.5673907444e-16 5.1347814889e-16 -7.6327832943e-17 5.2388648974e-16
          4.5449755071e-16 1.1865508576e-15 7.5633943553e-16 -3.469446952e-17 6.2450045135e-16 4.0939474033e-16
          -0.013333333333 -0.0066666666666 -0.0066666666666 -0.0033333333333 -0.0066666666666 -0.0033333333333
          -0.0066666666666 -0.0033333333333 -0.0033333333333 -0.013333333333 -0.013333333333 -0.013333333333
          -0.026666666667 -0.013333333333 -0.026666666667 -0.026666666667 -0.013333333333 -0.026666666667
          -0.013333333333 -0.013333333333 -0.013333333333 -1.1275702594e-16 -2.9945664004e-16 -1.0364972769e-16
          -2.8102520311e-16 -4.4604077376e-16 -3.0140820395e-16 -1.0646865334e-16 -2.7148422399e-16 -1.2056328158e-16
          -1.8388068845e-16 -1.734723476e-16 -1.7173762412e-16 -3.5041414215e-16 -1.7694179455e-16 -3.469446952e-16
          -3.469446952e-16 -1.6306400674e-16 -3.3480163086e-16 -1.6653345369e-16 -1.6653345369e-16 -1.6479873022e-16
          -3.5908775953e-16 -6.4791921828e-16 -3.5691935518e-16 -6.7307270868e-16 -1.5079083815e-15 -6.9822619908e-16
          -3.8640965427e-16 -6.7914424084e-16 -3.8424124993e-16 -2.8796409701e-16 -2.7235158573e-16 -2.7235158573e-16
          -5.6378512969e-16 -3.0184188482e-16 -5.8633653488e-16 -5.8807125836e-16 -3.105155022e-16 -5.9154070531e-16
          -3.035766083e-16 -2.8449465006e-16 -2.7582103268e-16 -5.1434551063e-16 -1.1019830881e-15 -4.6837533851e-16
          -1.1323407489e-15 -2.144985578e-15 -1.1167282377e-15 -5.1694759584e-16 -1.1310397063e-15 -5.0740661672e-16
          -4.2327252814e-16 -3.8337388819e-16 -3.97251676e-16 -8.1358531023e-16 -3.7123082386e-16 -8.0664641633e-16
          -7.7368667029e-16 -3.9378222905e-16 -7.5633943553e-16 -3.5908775953e-16 -4.0072112295e-16 -3.7816971776e-16
          -6.7307270868e-16 -1.2706849462e-15 -6.9735883734e-16 -1.3808398869e-15 -2.7261179425e-15 -1.3669620991e-15
          -6.7220534694e-16 -1.3513495878e-15 -6.4965394175e-16 -4.1286418728e-16 -3.7816971776e-16 -3.7470027081e-16
          -7.5980888248e-16 -3.7296554734e-16 -7.7889084071e-16 -7.6501305291e-16 -3.8337388819e-16 -7.8409501114e-16
          -3.8684333514e-16 -3.7990444124e-16 -3.7990444124e-16 -7.1557343384e-16 -1.3027773305e-15 -7.1297134863e-16
          -1.3392065235e-15 -2.740863092e-15 -1.4545656346e-15 -7.2337968948e-16 -1.3678294608e-15 -6.4705185654e-16
          -3.2959746044e-16 -3.5041414215e-16 -2.8102520311e-16 -6.140921105e-16 -3.2612801348e-16 -4.9960036108e-16
          -5.7245874707e-16 -2.740863092e-16 -5.5511151231e-16 -3.2959746044e-16 -3.1571967263e-16 -3.174543961e-16
          -4.7011006199e-16 -1.350482226e-15 -6.1235738702e-16 -1.2264494975e-15 -2.2403953692e-15 -1.1813466871e-15
          -5.5164206536e-16 -1.1449174941e-15 -5.7332610881e-16 -1.0755285551e-16 -3.469446952e-17 -1.4224732503e-16
          -2.9143354396e-16 -1.0061396161e-16 -2.4633073359e-16 -2.3592239273e-16 -1.1796119637e-16 -2.7061686225e-16
          -1.2490009027e-16 -8.6736173799e-17 -1.6306400674e-16 -3.5128150389e-16 -9.0118884577e-16 -4.9699827587e-16
          -8.1792211892e-16 -1.7832957333e-15 -7.9537071374e-16 -4.0592529338e-16 -8.2399365109e-16 -3.1398494915e-16
          2.3939183968e-16 2.5326962749e-16 2.602085214e-16 3.7470027081e-16 1.1796119637e-16 4.475586568e-16
          4.0592529338e-16 2.3939183968e-16 3.9551695252e-16 1.7694179455e-16 2.740863092e-16 1.9081958236e-16
          -4.6837533851e-17 -2.4459601011e-16 -3.1225022568e-17 -9.1940344227e-17 -8.3266726847e-17 -1.9255430583e-16
          -1.734723476e-18 -1.6306400674e-16 -7.2858385991e-17 5.0653925499e-16 5.4817261841e-16 5.0653925499e-16
          1.1483869411e-15 5.6551985317e-16 1.1830814106e-15 1.1796119637e-15 6.0368376964e-16 1.228184221e-15
          5.8286708793e-16 5.7592819402e-16 5.9674487574e-16 3.4000580129e-16 8.6736173799e-16 4.0245584643e-16
          8.0664641633e-16 1.66186509e-15 7.2337968948e-16 3.2092384306e-16 8.8991314318e-16 3.6776137691e-16
          1.0547118734e-15 1.082467449e-15 1.1241008124e-15 2.1371793224e-15 1.1379786002e-15 2.2135071553e-15
          2.241262731e-15 1.0685896612e-15 2.2690183066e-15 1.0894063429e-15 1.0200174039e-15 1.1067535777e-15
          8.7777007884e-16 1.8700319071e-15 9.4368957093e-16 2.0209528495e-15 3.60822483e-15 1.6497220257e-15
          9.5583263526e-16 1.8839096949e-15 9.2807705965e-16 1.6028844918e-15 1.6028844918e-15 1.519617765e-15
          3.2543412409e-15 1.6306400674e-15 3.2335245592e-15 3.1225022568e-15 1.6306400674e-15 3.1710745141e-15
          1.6167622796e-15 1.5681900223e-15 1.5543122345e-15 1.4883927424e-15 3.0704605525e-15 1.5369649997e-15
          2.9004576518e-15 5.9726529278e-15 3.0114799543e-15 1.5230872119e-15 2.9403562918e-15 1.6688039839e-15
          2.1510571102e-15 2.1926904736e-15 2.31065167e-15 4.5033421436e-15 2.2620794127e-15 4.3645642656e-15
          4.5102810375e-15 2.3314683517e-15 4.4270143107e-15 2.2065682614e-15 2.2828960944e-15 2.2135071553e-15
          2.0608514895e-15 4.6074255522e-15 2.0469737017e-15 4.4582393333e-15 8.5105533731e-15 4.1945613649e-15
          2.0469737017e-15 4.2708891979e-15 2.1475876633e-15 2.9282132274e-15 2.7963742433e-15 2.8380076067e-15
          5.5025428658e-15 2.7200464103e-15 5.7454041524e-15 5.6205040622e-15 2.8102520311e-15 5.7315263646e-15
          2.7478019859e-15 2.8310687128e-15 2.8241298189e-15 2.6905561112e-15 5.2215176627e-15 2.4806545706e-15
          5.4539706085e-15 1.0927023175e-14 5.4366233737e-15 2.7981089668e-15 5.5459109527e-15 2.5205532106e-15
          3.3306690739e-15 3.4139358007e-15 3.247402347e-15 6.8833827527e-15 3.4000580129e-15 6.6058269965e-15
          6.7099104051e-15 3.3792413312e-15 6.8348104953e-15 3.3306690739e-15 3.4000580129e-15 3.4833247398e-15
          3.3289343504e-15 6.4670491184e-15 3.3445468617e-15 6.8608313475e-15 1.3239409569e-14 6.2623517483e-15
          3.684552663e-15 6.5815408679e-15 3.2820968165e-15 4.0939474033e-15 3.8441472228e-15 4.0245584643e-15
          7.9311557322e-15 3.8857805862e-15 7.8756445809e-15 7.8478890053e-15 3.9551695252e-15 8.0005446712e-15
          3.9968028887e-15 3.9065972679e-15 4.1702752362e-15 3.9031278209e-15 7.7091111272e-15 3.8129222002e-15
          7.7715611724e-15 1.5785983631e-14 7.8929918157e-15 3.7782277307e-15 7.8478890053e-15 3.97251676e-15
          4.4131365229e-15 4.6074255522e-15 4.329869796e-15 8.7985174702e-15 4.4964032497e-15 8.8540286214e-15
          8.8054563641e-15 4.3368086899e-15 8.7915785763e-15 4.3090531143e-15 4.4339532046e-15 4.475586568e-15
          4.4651782272e-15 8.881784197e-15 4.2223169405e-15 9.1350538245e-15 1.7132129049e-14 8.9268870074e-15
          4.5345671662e-15 8.5313700549e-15 4.2188474936e-15 4.8849813084e-15 4.8086534754e-15 4.8294701571e-15
          9.6173069508e-15 4.7462034303e-15 9.603429163e-15 9.4993457544e-15 4.7462034303e-15 9.5617957996e-15
          4.7739590059e-15 4.7947756876e-15 4.8294701571e-15 5.051514762e-15 9.3779151111e-15 4.8017145815e-15
          9.6485319734e-15 1.9127061046e-14 9.5548569057e-15 4.5831394235e-15 9.5964902691e-15 4.8121229224e-15
          5.1555981706e-15 5.2319260035e-15 5.051514762e-15 1.0019762797e-14 4.9404924596e-15 9.9711905399e-15
          1.0123846206e-14 5.1209037011e-15 9.8809849192e-15 4.9960036108e-15 4.912736884e-15 4.9960036108e-15
          4.7392645364e-15 9.7526153819e-15 5.0723314438e-15 9.7283292533e-15 1.9838297671e-14 9.5236318831e-15
          5.1937620871e-15 1.0155071228e-14 4.9994730578e-15 5.419276139e-15 5.3360094121e-15 5.1347814889e-15
          1.0547118734e-14 5.2180482157e-15 1.0498546477e-14 1.0408340856e-14 5.2041704279e-15 1.0436096431e-14
          5.1625370645e-15 5.2666204731e-15 5.2874371548e-15 5.0237591864e-15 1.033548247e-14 4.982125823e-15
          9.9746599869e-15 2.0327489691e-14 1.0106498971e-14 5.0653925499e-15 1.0224460167e-14 4.98559527e-15
          5.3984594572e-15 5.0931481255e-15 5.1625370645e-15 1.038058528e-14 5.2596815792e-15 1.0734468869e-14
          1.0491607583e-14 5.273559367e-15 1.0449974219e-14 5.1209037011e-15 5.1694759584e-15 5.3082538365e-15
          4.909267437e-15 9.9191488356e-15 5.0306980803e-15 1.0189765698e-14 2.0698720515e-14 1.0005885009e-14
          5.1521287237e-15 1.0026701691e-14 5.1035564663e-15 5.051514762e-15 5.0098813986e-15 4.9960036108e-15
          1.0033640585e-14 5.1070259133e-15 9.9434349643e-15 1.0200174039e-14 5.1070259133e-15 1.025568519e-14
          5.0792703377e-15 5.0931481255e-15 5.1833537462e-15 4.9196757779e-15 1.0321604682e-14 4.9266146718e-15
          1.0113437865e-14 2.0820151159e-14 9.9399655173e-15 5.2770288139e-15 1.0165479569e-14 5.2596815792e-15
          4.8849813084e-15 5.0653925499e-15 5.0792703377e-15 9.8809849192e-15 4.9960036108e-15 1.0283440766e-14
          9.6866958899e-15 4.9682480352e-15 9.7283292533e-15 4.8711035205e-15 4.8294701571e-15 5.1209037011e-15
          4.7080395138e-15 9.530570777e-15 4.8468173919e-15 9.9364960704e-15 1.8426232762e-14 9.9885377747e-15
          4.7947756876e-15 9.3050567251e-15 5.1729454054e-15 4.4964032497e-15 4.4825254619e-15 4.5657921888e-15
          9.6866958899e-15 4.8711035205e-15 9.4230179215e-15 9.3813845581e-15 4.62130334e-15 9.4785290727e-15
          4.7878367937e-15 4.8017145815e-15 4.7184478547e-15 4.5206893784e-15 8.6944340616e-15 4.2431336222e-15
          8.7117812964e-15 1.7673362773e-14 8.2711615335e-15 4.9613091413e-15 8.7256590842e-15 4.3853809473e-15
          4.4547698863e-15 4.4270143107e-15 4.4964032497e-15 8.8956619848e-15 4.3715031595e-15 8.5625950774e-15
          8.6736173799e-15 4.5102810375e-15 8.5348395018e-15 4.3853809473e-15 4.6351811278e-15 4.5380366132e-15
          4.1355807667e-15 7.9762585425e-15 3.8927194801e-15 8.0629947163e-15 1.6629059241e-14 8.5868812061e-15
          4.3749726064e-15 8.2503448517e-15 3.896188927e-15 4.0384362521e-15 3.9968028887e-15 4.1078251911e-15
          7.9936057773e-15 3.9412917374e-15 7.6466610821e-15 7.9103390505e-15 3.8719027984e-15 8.0213613529e-15
          3.9412917374e-15 3.9274139496e-15 4.0245584643e-15 3.5700609136e-15 7.1401218271e-15 3.0912772342e-15
          6.9111383283e-15 1.398881011e-14 6.2554128544e-15 3.8337388819e-15 6.859096624e-15 3.5492442318e-15
          3.3445468617e-15 3.4139358007e-15 3.469446952e-15 7.0637939942e-15 3.7331249203e-15 7.2858385991e-15
          7.0499162064e-15 3.5943470422e-15 7.2719608113e-15 3.4416913763e-15 3.5804692544e-15 3.3723024373e-15
          3.2092384306e-15 6.3733740507e-15 3.3341385208e-15 5.8286708793e-15 1.277103423e-14 6.2311267257e-15
          3.2855662635e-15 6.1582683397e-15 3.0878077872e-15 3.1502578324e-15 3.2196467714e-15 3.0114799543e-15
          6.1062266354e-15 2.9559688031e-15 6.3005156647e-15 6.356026816e-15 3.247402347e-15 6.3976601794e-15
          3.1918911958e-15 2.9976021665e-15 3.2196467714e-15 2.5708601914e-15 5.7280569177e-15 2.314121117e-15
          5.054984209e-15 1.1043249648e-14 5.7696902811e-15 2.5639212975e-15 5.3949900103e-15 2.7616797738e-15
          2.525757381e-15 2.7894353494e-15 2.6506574713e-15 5.4817261841e-15 2.8033131372e-15 5.2319260035e-15
          5.3013149426e-15 2.7894353494e-15 5.0931481255e-15 2.4424906542e-15 2.7061686225e-15 2.7061686225e-15
          2.0400348077e-15 4.6490589156e-15 2.1753432389e-15 4.5900783174e-15 8.3509588134e-15 4.045375146e-15
          1.9567680809e-15 4.2015002588e-15 2.3488155865e-15 2.1233015346e-15 2.3592239273e-15 2.2204460493e-15
          4.6768144912e-15 2.3592239273e-15 4.2882364326e-15 4.4964032497e-15 2.3037127761e-15 4.6490589156e-15
          2.1233015346e-15 2.3869795029e-15 2.456368442e-15 2.3453461395e-15 3.4416913763e-15 1.6167622796e-15
          4.2327252814e-15 5.9258153939e-15 3.2612801348e-15 1.734723476e-15 3.3514857556e-15 1.6167622796e-15
          1.8735013541e-15 2.0400348077e-15 2.0400348077e-15 3.7747582837e-15 1.9290125053e-15 3.8163916471e-15
          3.5110803154e-15 1.9428902931e-15 4.0661918277e-15 2.0122792321e-15 1.8457457784e-15 1.9151347175e-15
          1.2004286454e-15 2.4355517603e-15 1.7139067943e-15 3.1710745141e-15 5.9743876513e-15 2.2135071553e-15
          1.4363510381e-15 2.6298407896e-15 1.2698175844e-15 1.4571677198e-15 1.9567680809e-15 1.5265566589e-15
          2.8588242884e-15 1.5543122345e-15 3.0253577421e-15 3.4139358007e-15 1.6653345369e-15 2.9976021665e-15
          1.6375789613e-15 1.443289932e-15 1.4988010832e-15 7.3552275381e-16 1.2836953722e-15 1.2698175844e-15
          2.1857515797e-15 4.7115089608e-15 1.8665624602e-15 6.1756155745e-16 2.380040609e-15 1.1310397063e-15
          1.6098233857e-15 1.3877787808e-15 1.3877787808e-15 2.4980018054e-15 1.082467449e-15 2.525757381e-15
          2.4147350786e-15 1.0547118734e-15 2.6367796835e-15 1.3322676296e-15 1.3322676296e-15 1.1657341759e-15
          8.7430063189e-16 1.9290125053e-15 5.5511151231e-16 1.9428902931e-15 2.8241298189e-15 1.7069679004e-15
          5.273559367e-16 1.0894063429e-15 8.0491169285e-16 1.0685896612e-15 1.1102230246e-15 1.1657341759e-15
          1.9984014443e-15 1.0547118734e-15 2.3453461395e-15 2.3592239273e-15 1.0269562978e-15 2.1094237468e-15
          8.881784197e-16 1.3322676296e-15 7.7715611724e-16 3.538835891e-16 9.5062846484e-16 6.1062266354e-16
          1.1310397063e-15 2.5188184871e-15 1.0061396161e-15 8.1185058676e-16 9.2981178312e-16 1.0269562978e-15