<?xml version="1.0"?>
<VTKFile type="UnstructuredGrid" version="0.1" byte_order="LittleEndian" header_type="UInt32">
  <UnstructuredGrid>
    <FieldData>
      <DataArray type="Int8" Name="IntegrationPointMetaData" NumberOfTuples="97" format="ascii" RangeMin="34" RangeMax="125">
        123 34 105 110 116 101
        103 114 97 116 105 111
        110 95 112 111 105 110
        116 95 97 114 114 97
        121 115 34 58 91 123
        34 105 110 116 101 103
        114 97 116 105 111 110
        95 111 114 100 101 114
        34 58 50 44 34 110
        97 109 101 34 58 34
        115 105 103 109 97 95
        105 112 34 44 34 110
        117 109 98 101 114 95
        111 102 95 99 111 109
        112 111 110 101 110 116
        115 34 58 54 125 93
        125
      </DataArray>
      <DataArray type="Int8" Name="OGS_VERSION" NumberOfTuples="40" format="ascii" RangeMin="45" RangeMax="121">
        54 46 50 46 48 45
        49 53 45 103 53 51
        56 49 101 101 99 99
        100 46 100 105 114 116
        121 46 50 48 49 57
        48 52 48 49 49 53
        48 52 49 50
      </DataArray>
      <DataArray type="Float64" Name="sigma_ip" NumberOfComponents="6" NumberOfTuples="3456" format="ascii" RangeMin="1414213562.2" RangeMax="1414213562.6">
        -0.063674312748 -0.02062148035 -0.017079573999 999999999.95 -0.0066856008852 1000000000
        -0.06844862176 -0.023904340309 -0.016493424678 999999999.95 0.0013624967964 1000000000
        -0.044802941787 -0.0084921985693 -0.0041281894153 999999999.92 0.010005144333 1000000000
        -0.034429169299 -0.0074599729375 -0.0051151992568 999999999.95 -0.0044800809688 1000000000
        -0.037808310658 -0.014331514682 -0.0069333700849 999999999.95 0.0014616088829 1000000000
        -0.034948083953 -0.0099017083695 -0.0043662751466 999999999.92 0.0079972598051 1000000000
        -0.012495867261 0.0014176582118 -0.00297396774 999999999.96 -0.00060638074726 1000000000
        -0.012207860046 -0.0082849746658 -0.0064399852268 999999999.94 0.0032288706086 1000000000
        -0.027861358955 -0.014080929677 -0.012914553653 999999999.92 0.00765776411 1000000000
        -0.015706080255 -0.0063193078313 -0.0061884402923 999999999.95 -0.033239912256 1000000000
        -0.024512431529 -0.007759542268 0.0027869519655 999999999.96 0.00018016810963 1000000000
        0.0069850802745 0.045146146445 0.035426005087 999999999.93 0.036236556377 1000000000
        -0.005066555795 0.014274859902 0.014808738399 999999999.95 -0.027673983556 1000000000
        -0.0166724982 -0.0060840226693 0.01011871093 999999999.96 -0.0035989463076 1000000000
        -0.010155358041 0.0205096557 0.021697594337 999999999.95 0.023111074076 1000000000
        -0.011258922426 0.021064373109 -0.0025766465882 999999999.96 -0.014706859799 999999999.99
        -0.023391326652 -0.017454106308 -0.020172487384 999999999.96 2.3060732987e-05 1000000000
        -0.039581775773 -0.016414774771 -0.02889416729 999999999.96 0.017386345243 1000000000
        0.021524482805 -0.0014219993525 -0.028843120282 999999999.94 -0.065339495799 1000000000
        0.013914330719 0.014665459561 -0.0062505871116 999999999.96 -0.010087844047 1000000000
        0.058489509742 0.12074532739 0.051884993286 999999999.94 0.049840180897 1000000000
        0.01798493421 0.03103217261 0.014465702192 999999999.94 -0.062947263677 1000000000
        0.0033798233231 0.01286915915 0.012131138394 999999999.97 -0.024280106043 1000000000
        0.018782801867 0.077310951677 0.037953267898 999999999.96 0.019062983195 1000000000
        -0.011905384216 0.040163088861 -0.0091649527908 999999999.95 -0.047419245522 999999999.97
        -0.031232879706 -0.011492039572 -0.035668533712 999999999.97 -0.02533834836 1000000000
        -0.042732511168 0.012066912553 -0.041410587653 999999999.98 0.0014180388171 1000000000
        -0.10996810679 -0.042847865055 -0.04308741302 999999999.99 -0.0041166781627 1000000000
        -0.11949855418 -0.044614100863 -0.047487684179 999999999.97 -0.0010092259932 1000000000
        -0.081584025887 -0.028766751099 -0.03562310686 999999999.95 0.0023129915186 1000000000
        -0.031407467639 -0.013995548021 -0.02038354579 999999999.98 -0.0015019467661 1000000000
        -0.051766303101 -0.019413025602 -0.029074394529 999999999.97 -0.0016973680786 1000000000
        -0.046397130319 -0.014456679284 -0.028739698496 999999999.95 -0.0016782448431 1000000000
        -0.0054181504765 -0.0006170764708 -0.0070029578778 999999999.97 0.0010487236316 999999999.99
        -0.014587271543 -0.0023462166976 -0.012644950785 999999999.97 -0.002449712226 1000000000
        -0.019745206076 -0.00094120102274 -0.016500213435 999999999.96 -0.005733585136 1000000000
        -0.039721749035 -0.038685691995 -0.01974688314 1000000000 -0.014386242012 1000000000
        -0.059054429961 -0.037891796831 -0.031375550955 999999999.99 -0.00055277067624 1000000000
        -0.028625174356 -0.01253423843 -0.024421604521 999999999.95 0.014232372951 999999999.99
        -0.005934865023 -0.01563625199 -0.024095179992 999999999.98 -0.0032444734024 1000000000
        -0.029967235943 -0.016596015867 -0.040311628674 999999999.97 -0.0040642824601 1000000000
        -0.025954623882 -0.00023151735652 -0.045185072124 999999999.95 -0.0039331552071 1000000000
        -0.014151280853 0.0025072432518 -0.0060625682753 999999999.95 0.0076123724917 1000000000
        -0.020864351113 0.0071348254046 -0.019525237641 999999999.96 -0.0078602753713 1000000000
        -0.021249565414 0.0218466099 -0.028884545487 999999999.95 -0.022383238091 1000000000
        0.041703106088 -0.027655722672 0.041439839933 1000000000 -0.018647546543 1000000000.1
        0.013135725486 -0.022599289225 0.023150503618 999999999.99 0.0059834260985 1000000000
        0.036645512755 0.013968583148 0.025756931224 999999999.95 0.032302591591 999999999.95
        0.030624381348 -0.010502713334 0.0097655182036 999999999.97 0.00031019139137 1000000000.1
        0.003487021916 -0.0052997124761 -0.013407393669 999999999.96 -0.0010615787636 1000000000
        0.0067115074454 0.024177581598 -0.022919883219 999999999.94 -0.0007456957871 999999999.98
        -0.0118879384 0.012314056075 0.032181219545 999999999.92 0.018765450674 1000000000
        -0.015577604398 0.025002894691 0.01146275346 999999999.93 -0.0086129384437 1000000000
        -0.010623801457 0.054724856255 -0.0028388197929 999999999.94 -0.034301073964 999999999.99
        -0.0050460137613 0.0085751840299 -0.00096397362833 999999999.96 0.0068259953636 1000000000
        -0.002247753872 0.015501373398 -5.1564012353e-05 999999999.94 0.0053655701833 1000000000
        -0.024108272081 0.0112598399 -0.0080957015746 999999999.92 0.0037585560191 1000000000
        -0.0120180154 0.0001611013413 -0.0035184726653 999999999.97 9.4205547521e-05 1000000000
        -0.019823636536 0.0068393043364 -0.0048599830358 999999999.96 0.0015525025166 1000000000
        -0.04438306168 0.0049838529567 -0.01252318453 999999999.95 0.0028639406422 1000000000
        -0.030614140641 -0.013407874663 -0.015068247891 999999999.97 -0.008120824855 999999999.98
        -0.038888358876 -0.0035995041515 -0.0152858262 999999999.98 -0.003743860935 999999999.99
        -0.056011261312 0.0003097210951 -0.019190097332 999999999.97 0.00048594974914 1000000000
        -0.0054435295474 0.04636065771 0.00045723775571 999999999.96 0.017066365307 999999999.98
        0.00012118744171 0.058324167142 -0.0018996726623 999999999.95 0.010082839377 1000000000
        -0.022773631986 0.047716769756 -0.017012979583 999999999.95 0.0024487309182 1000000000
        -0.017531704007 0.015732172925 -0.002915965664 999999999.97 -0.0050739500418 999999999.99
        -0.0042765122955 0.044838692079 0.0029716267091 999999999.96 0.00089141999342 1000000000
        -0.011575634846 0.054010164875 -0.0012631210727 999999999.96 0.0062055696487 1000000000
        -0.047844147845 -0.02665187137 -0.035084362186 999999999.97 -0.033794179427 999999999.97
        -0.016761624091 0.022978737875 -0.017571047877 999999999.97 -0.014879569969 999999999.98
        0.0016707667224 0.05530689994 -0.007546919431 999999999.97 0.0033829604638 999999999.99
        -0.0050288564757 0.088547098827 0.00072623713338 999999999.96 0.0068270073373 999999999.97
        -0.0062712465504 0.076825671112 -0.014471992762 999999999.97 -0.0064589678519 999999999.99
        -0.039774993012 0.031128570558 -0.046229133019 999999999.99 -0.020902444641 1000000000
        -0.02125598198 0.036684105196 -0.00053667681604 999999999.96 -0.018751614234 999999999.97
        0.0034849821654 0.059492778436 0.0030060187215 999999999.97 -0.0090594334866 999999999.99
        0.0038724488591 0.0509666353 -0.0073705886403 999999999.99 -0.00052230106946 1000000000
        -0.062304287381 -0.033530803351 -0.050386070533 999999999.96 -0.056005737721 999999999.95
        -0.0014454015302 0.027186067487 -0.024727406033 999999999.97 -0.02333589169 999999999.96
        0.042965209024 0.059205370188 -0.010355375864 999999999.98 0.0081779247018 999999999.97
        0.0014005580864 0.0089332747034 -0.00057946311632 999999999.98 0.0042077005931 999999999.99
        -0.004832710974 0.0062084503026 -0.0056391004156 999999999.97 0.0027611057194 999999999.99
        -0.011674512757 0.0024583469482 -0.011107069203 999999999.97 0.00099373359653 1000000000
        0.013411867438 0.0046347041904 0.0017784125983 999999999.99 0.0021537865965 999999999.99
        -0.0047875272635 -0.0013475687973 -0.0060829128586 999999999.98 0.00063762926709 999999999.99
        -0.014378860654 -0.0052836027394 -0.011281183644 999999999.97 -0.0012000474255 999999999.99
        0.011406814964 -0.0039564294343 0.00098283137162 999999999.98 -0.00011707615212 999999999.98
        -0.017915195007 -0.01291484442 -0.009399246885 999999999.98 -0.0017031087292 999999999.98
        -0.029412022279 -0.016754836228 -0.014045441019 999999999.97 -0.0036105993376 999999999.98
[...]
      <PointData>
        <DataArray type="Float64" Name="MaterialForces" NumberOfComponents="3" format="ascii" RangeMin="0.0013795273016" RangeMax="208333333.35">
          0.0068882666528 -0.0013537108898 -0.004616510123 -83333333.333 -0.0022390931845 0.0020457543433
          -41666666.665 41666666.664 0.0031426511705 0.0048152506351 83333333.333 0.0031039342284
          0.0041439644992 -7.7318400145e-05 104166666.66 -41666666.665 -0.0004315674305 52083333.332
          -20833333.331 20833333.333 26041666.667 0.010748397559 41666666.668 52083333.333
          -0.0047252550721 -0.0030083209276 -104166666.66 -41666666.669 -0.0020296946168 -52083333.331
          -20833333.335 20833333.331 -26041666.664 -0.0058489851654 41666666.662 -52083333.327
          0.022625114769 -0.0039985068142 -0.0022176764905 -83333333.329 1.5374273062e-05 0.0023922622204
          0.0081239789724 -0.00071452558041 104166666.66 -41666666.664 -0.00025905296206 52083333.33
          0.0078122802079 -0.0021316707134 -104166666.66 -41666666.665 -8.4631145e-05 -52083333.33
          0.0095372758806 -0.0031517408788 -0.0052658058703 -83333333.333 -0.00068450346589 -0.00018090754747
          0.005287181586 -9.9487602711e-05 104166666.66 -41666666.667 0.00013364106417 52083333.331
          0.0077676959336 -0.0025425255299 -104166666.67 -41666666.666 -0.00093791633844 -52083333.331
          0.0095253400505 -0.0014950074255 -0.0024687722325 -83333333.336 -0.00027640163898 -0.00042795017362
          0.00065253302455 0.00080781430006 104166666.67 -41666666.668 0.00028440356255 52083333.331
          0.0023650154471 -0.0023074969649 -104166666.67 -41666666.668 -0.00056571885943 -52083333.332
          -0.012504220009 0.013081453741 -0.02093597874 -0.0096928626299 83333333.341 -0.0074303410947
          0.0097495093942 0.0074219927192 104166666.66 0.00036791339517 41666666.671 52083333.328
          -0.0076741576195 0.0042296126485 -104166666.67 -0.0051316991448 41666666.666 -52083333.33
          0.0023163482547 -0.0016860067844 -0.0099953301251 0.012107215822 -0.00095763429999 104166666.67
          0.0013039708138 -0.0010685510933 -104166666.67 0.009563151747 -0.0048717446625 -0.0062358900905
          0.010158158839 0.0011639520526 104166666.67 0.0024662204087 -0.0033309720457 -104166666.67
          0.014311157167 -0.0017291456461 -0.0028773210943 0.0065011419356 0.00062634795904 104166666.67
          0.0090150274336 -0.0023638233542 -104166666.67 -0.0010837391019 0.019654344767 -0.016890037805
          0.003834400326 83333333.343 -0.0069303847849 0.010525308549 0.01172465831 104166666.66
          0.017246682197 41666666.674 52083333.33 0.0047374255955 0.0058892294765 -104166666.67
          -0.00057694688439 41666666.666 -52083333.33 -0.0060366615653 0.0021399706602 -0.0025620162487
          0.0051871091127 -5.6628137827e-05 104166666.68 0.0012309104204 0.001599971205 -104166666.68
          -0.013515416533 -0.0024941675365 0.003374312073 -0.0046229176223 -0.0015868842602 104166666.68
          -0.00089148059487 -0.002884298563 -104166666.68 -0.019865892828 -0.00095453113317 -0.0015747956932
          -0.0049654208124 0.00013151019812 104166666.67 -0.0019273497164 -0.0010923780501 -104166666.67
          0.0010952688754 0.0031200237572 0.001702837646 0.0074095875025 83333333.34 0.0004311054945
          0.0058568455279 -0.00055457651615 104166666.67 0.010505210608 41666666.669 52083333.334
          0.0069894492626 0.0027540624142 -104166666.67 0.0016826726496 41666666.67 -52083333.335
          -0.022305049002 -0.006212156266 0.0046698227525 -0.013178285211 -0.0042232125998 104166666.67
          0.0043547041714 -5.9593468904e-05 -104166666.66 -0.015081744641 -0.0064099989831 0.0012090504169
          -0.018936857581 -0.0036292150617 104166666.66 -0.0044817179441 -0.0013693869114 -104166666.67
          -0.020300570875 -9.8440796137e-05 -0.00016266480088 -0.018347159028 -0.0018929392099 104166666.66
          -0.015276685357 0.0018010884523 -104166666.66 0.013962265104 0.00066520273685 0.0011567212641
          -83333333.332 0.00022630393505 -0.00052927806973 0.007742587477 0.0013448372483 104166666.67
          -41666666.666 0.0007066577673 52083333.331 0.0085062794387 -0.0012005344033 -104166666.66
          -41666666.667 -0.00037183985114 -52083333.331 0.030329331756 0.0027149133384 7.6543539762e-05
          -83333333.328 -0.00025946646929 -0.0027740895748 0.009033806622 0.0016688667238 104166666.66
          -41666666.665 -1.3999640942e-05 52083333.33 0.011472899467 -0.00011693313718 -104166666.66
          -41666666.663 0.00010105222464 -52083333.33 0.015201020986 0.0011671409011 0.0042397528887
          -83333333.332 0.0021568536758 -0.0021888464689 -0.0027781240642 0.0033431909978 104166666.66
          -41666666.669 0.0020781345665 52083333.331 0.0049267932773 -0.00042778253555 -104166666.66
          -41666666.665 0.00030084699392 -52083333.332 0.0078714452684 -83333333.333 -0.0030288770795
          -41666666.664 -41666666.664 -0.0032087154686 -0.0047626681626 -41666666.662 52083333.327
          -20833333.335 -20833333.331 26041666.664 0.0087262280285 -41666666.668 -52083333.334
          -20833333.331 -20833333.333 -26041666.667 0.016417995095 0.0020816065371 0.0016091018915
          0.0020824000239 0.0019212849438 104166666.67 0.014787234366 -0.0025665611029 -104166666.67
          0.014424212277 0.00060958042741 0.00822622329 0.0021241717041 0.00063989311457 104166666.67
          0.016604296863 0.00028104707599 -104166666.67 0.0011040642858 -0.012328334153 0.02214800939
          -0.0059409998357 -0.0034382231534 104166666.67 0.0094107761979 -0.00746018067 -104166666.66
          -0.0045306161046 -83333333.34 0.0086346492171 -0.0037568360567 -41666666.665 52083333.331
          -0.0045596286654 -41666666.671 -52083333.328 -0.0068047754467 0.0011177919805 -0.0055867880583
          -0.0022629313171 0.00208279863 104166666.67 0.00028466433287 0.00099594518542 -104166666.68
          0.0046739168465 -0.0020130090415 0.0029363967478 -0.0004691593349 -0.0016293004155 104166666.68
          0.0086442679167 0.00019091367722 -104166666.68 0.0095849074423 -0.017561715096 0.020499907434
          0.0024956762791 -0.0047430731356 104166666.67 0.006548255682 -0.010787308216 -104166666.66
          0.0072839409113 -83333333.342 0.0096037834883 -0.0007055811584 -41666666.665 52083333.331
          0.0087312571704 -41666666.673 -52083333.329 -0.010204892606 0.0065181180835 -0.00096762925386
          -0.0065257288516 0.0012424066663 104166666.67 -0.014431491494 0.0038773342967 -104166666.66
          -0.017399184406 0.0072107091546 -0.0028133057058 -0.00036761537194 0.00028072297573 104166666.66
          -0.01194967702 0.0050116628408 -104166666.67 0.001543879509 -0.00073601678014 0.0024978853762
          -0.0012854635715 -0.0018310323358 104166666.67 -0.0028961598873 0.0020232461393 -104166666.67
          0.005572475493 -83333333.339 0.0024832487106 -0.0011944621801 -41666666.669 52083333.336
          -0.0011533126235 -41666666.668 -52083333.332 0.0033590830863 -0.019320353866 0.029376938939
          -0.0031785182655 83333333.326 0.014308311045 -0.00054461881518 -0.0056926719844 104166666.67
          -0.0038292258978 41666666.664 52083333.34 0.007121372968 -0.0083578489721 -104166666.66
          0.0080445297062 41666666.668 -52083333.335 -0.0090066641569 -0.0077747516334 0.017608739436
          -0.014413569123 0.00063428655267 104166666.66 0.005165413022 -0.0065495222807 -104166666.65
          -0.013211585581 -0.0012752115726 -0.0048194490373 -0.0054187364876 -0.0011090151966 104166666.65
          -0.0066721141338 0.0007220171392 -104166666.66 0.0055019631982 0.00074378028512 0.0012029819191
          -0.0033791474998 -0.0024633519351 104166666.66 -0.00078866630793 0.0032116249204 -104166666.66
          0.0032187700272 -0.022897679359 0.037763785571 0.0058686174452 83333333.316 0.024835206568
          0.0023192539811 -0.010405246168 104166666.68 0.0026980638504 41666666.661 52083333.346
          0.0045757852495 -0.010491102934 -104166666.66 0.00056111812592 41666666.665 -52083333.334
          0.014522179961 0.0040822811425 0.013248257339 0.0046541430056 0.0079482868314 104166666.66
          0.0072792060673 -0.002512767911 -104166666.65 0.0087505839765 0.014566380531 -0.0075509361923
          -0.0046196505427 0.0047542713583 104166666.66 -0.0018211714923 0.0064954608679 -104166666.66
          0.015134066343 0.0012446120381 0.0019896738231 -0.0020768530667 -0.0043095573783 104166666.67
          0.00054908171296 0.0055269822478 -104166666.67 0.0029312372208 -0.012335669249 0.020765524358
          0.0045427009463 83333333.324 0.011493965983 0.0083634182811 -0.00129846856 104166666.67
          0.012380309403 41666666.663 52083333.338 -0.0053464770317 -0.004228439182 -104166666.66
          0.0030362904072 41666666.667 -52083333.334 -0.0024356767535 0.0060395151377 -0.0012302584946
          -0.00086437165737 0.0064349137247 104166666.66 -0.0082646273077 -0.0037171877921 -104166666.67
          -0.0074092075229 0.016721155494 -0.017857756466 -0.005098387599 0.0053530968726 104166666.66
          -0.0018575228751 0.006593644619 -104166666.68 0.011543478817 0.00059953331947 0.00085467845201
          0.0023025535047 -0.0042873322964 104166666.68 0.0058301314712 0.0048052556813 -104166666.68
          83333333.339 -0.0017691999674 0.0075232610106 41666666.671 41666666.66 0.0011953115463
          41666666.666 0.0027165710926 52083333.335 20833333.338 20833333.333 26041666.667
          41666666.669 -0.00089098140597 -52083333.331 20833333.335 20833333.334 -26041666.668
          83333333.326 0.00071711465716 -0.0046785362065 41666666.664 0.0026518031955 52083333.332
          41666666.668 -0.0019557662308 -52083333.333 83333333.325 0.0057642310858 -0.011795468628
          41666666.665 0.0026756487787 52083333.332 41666666.661 0.00066521763802 -52083333.338
          83333333.333 -0.00045082718134 -0.00062390044332 41666666.669 -0.0010165050626 52083333.338
          41666666.671 0.00059005618095 -52083333.339 -0.0083505697548 0.0027109757066 0.0071684345603
          -0.0072582960129 -0.00022502616048 104166666.66 -0.00025053322315 0.0020647495985 -104166666.65
          -0.0069838389754 0.0089469589293 -0.015589300543 0.00087559223175 0.0067470632493 104166666.65
          -0.013103753328 0.00038262829185 -104166666.66 -0.0040648728609 0.020205464214 -0.027665890753
          -0.0035655237734 0.0082611963153 104166666.66 -0.010976061225 0.0067304447293 -104166666.67
          -0.0096300579607 -83333333.326 -0.013307947665 0.0035482235253 -41666666.668 52083333.335
          -0.016233123839 -41666666.663 -52083333.339 0.018981941044 -0.012506254017 0.010812815279
          0.0019462220371 -0.0056800730526 104166666.66 0.0048190765083 -0.0035313144326 -104166666.66
          0.023831937462 -0.003497261554 -0.01238765195 0.0098054967821 0.0024305060506 104166666.65
          0.011949129403 -0.0072201006114 -104166666.66 -0.00045837461948 0.021279610693 -0.040222801268
          -9.2916190624e-05 0.0090797021985 104166666.66 -0.0035235472023 0.010322663933 -104166666.68
          -0.00091480836272 -83333333.318 -0.026788692921 -0.0024781152606 -41666666.666 52083333.332
          -0.0075188577175 -41666666.661 -52083333.346 0.011670466512 -0.015957310796 0.018893938512
          0.0074228383601 -0.0062552057207 104166666.68 0.011070862412 -0.0050035566092 -104166666.66
          0.021053824574 -0.0066611580551 7.9188495874e-05 0.0047043040395 0.0032911263406 104166666.66
          0.015875183046 -0.0065269842744 -104166666.66 0.011171262711 0.0096625387669 -0.025030560791
          0.0015074126422 0.0024858564138 104166666.66 0.0099978372455 0.00055608898401 -104166666.67
          -9.9796801805e-05 -83333333.326 -0.014388363808 0.003404583782 -41666666.668 52083333.332
          0.0046153888106 -41666666.663 -52083333.339 83333333.337 -0.0065805651248 0.010612614453
          41666666.667 -0.00088169425726 52083333.338 41666666.676 -0.0032288655639 -52083333.334
          83333333.342 -0.0012832432985 0.0036681257188 41666666.677 0.001817215234 52083333.333
          41666666.675 -0.0030426457524 -52083333.333 83333333.346 0.0014687292278 -0.0084299780428
          41666666.675 0.00063941255212 52083333.331 41666666.669 -0.0027535371482 -52083333.335
          41666666.669 -41666666.66 -0.0016589835286 20833333.336 -20833333.334 26041666.668
          20833333.335 -20833333.332 -26041666.667 83333333.329 -83333333.331 -0.002036692109
          83333333.332 -83333333.332 -0.0037423920003 83333333.332 0.00032606720924 -104166666.66
          166666666.67 0.0030106455961 -0.001705750823 83333333.339 0.0033192919509 104166666.66
          166666666.67 0.00093410909176 -0.00021765445126 166666666.67 0.0014192461967 -0.0030316528864
          83333333.331 -0.00040766457096 -104166666.66 166666666.66 0.00046500694589 -0.0010528713465
          83333333.33 0.00012093959958 104166666.66 166666666.66 0.0002673715353 0.0017237073625
          166666666.67 -0.00024139881134 -0.0037561918725 83333333.33 0.00052058673464 -104166666.66
          166666666.67 0.0003241149825 -0.0015998631716 83333333.332 0.00046694761841 104166666.66
          166666666.67 -5.7250261307e-05 0.0017706395593 166666666.67 0.00063620507717 -0.00088951486396
          83333333.333 0.00023031025194 -104166666.66 166666666.67 0.0014424812689 -0.00049306452274
          83333333.334 0.0012601018825 104166666.66 166666666.67 -0.00047501921654 0.0012275879853
          166666666.67 0.00041599571705 -0.00035679433495 83333333.335 -0.00098143029027 -104166666.66
          166666666.67 -0.00090375149739 0.00029873847961 83333333.332 4.8786227126e-05 104166666.66
          166666666.67 -0.00070668756962 0.0015087115462 166666666.67 1.0788440704e-05 -0.0009364518337
          83333333.332 -0.0002854722552 -104166666.66 166666666.67 3.869534703e-05 0.0014386177063
          83333333.33 -0.00031049616518 104166666.66 166666666.67 0.00016131997108 0.0038916912745
          166666666.66 -0.00027254223824 -0.0010645432631 83333333.33 -8.9733395725e-05 -104166666.66
          166666666.66 -0.00032800750341 0.00098942220211 83333333.331 0.00054901614203 104166666.66
          166666666.67 -0.0014972984791 0.002725991304 166666666.67 -0.00083062052727 0.0007800947642
          83333333.338 -0.0034102431964 -104166666.66 166666666.66 -0.0029529251333 0.0018641203642
          83333333.332 -0.00018217481556 104166666.66 83333333.332 83333333.332 0.0035610962659
          83333333.329 83333333.331 0.0023406532127 0.0014032970648 -83333333.33 -104166666.66
          -0.0047689641069 -166666666.66 -0.0021605491638 0.0011972638313 -83333333.333 104166666.67
          0.00068247946911 0.00032287836075 -208333333.33 0.0032718786679 0.0021806955338 -0.001523450017
          0.0047292765812 0.00160831213 208333333.33 -0.0086810009088 0.00055703520775 -208333333.32
          0.002703833452 -0.00068148970604 -0.0032902657986 -0.0002726050443 -0.0002394169569 208333333.33
          -0.0038249173667 -0.0012295544147 -208333333.32 0.001524921041 -0.0008841753006 -0.0024944394827
          -0.00072186099715 0.00096637010574 208333333.33 0.0014027277939 0.00030559301376 -208333333.33
          0.0013754123356 -2.8848648071e-05 -0.00010249018669 0.00049823898007 -0.0003058463335 208333333.33
          0.00010817591101 -0.00091533362865 -208333333.33 0.0011193979881 0.00080122053623 0.002290725708
          -0.0045528611809 0.0011696070433 208333333.32 0.00036771572195 0.00029517710209 -208333333.33
          0.0017514731735 0.00056117773056 0.0031255185604 -0.0088965421601 -0.00062833726406 208333333.32
          0.0052221443038 -0.0016175210476 -208333333.33 0.0016247323656 -0.0022583305836 0.0015351623297
          0.0011980511772 -0.00031611323357 208333333.33 0.0012054722756 83333333.333 -104166666.67
          -0.0051259929314 166666666.66 0.0023520290852 0.0021422402933 83333333.33 104166666.66
          -0.012751325965 -166666666.66 0.00031207129359 0.0018521845341 -166666666.66 -0.0096154243802
          -0.0070378929377 -0.0025571731385 -208333333.33 0.0053715854883 -0.00050435515004 0.00072894990444
          0.0066100955009 0.0046387826151 208333333.33 -0.0011444240808 -0.00050733983517 0.010427475732
          0.018714100122 0.000103905797 -0.0043214887264 -0.0061002224684 0.0018363837153 -208333333.33
          -0.016241699457 0.004190126725 0.0020399838686 -0.017687961459 0.0029721768806 208333333.33
          -0.011086016893 0.0026897788048 0.0071472901618 -0.003310829401 -0.0017315596342 -0.004193129309
          -0.0032010674477 -0.00055441446602 -208333333.33 -0.0094493180513 0.0026480843662 -0.0039512217045
          -0.0025814026594 0.0026988479367 208333333.33 -0.0076474100351 -0.0031088739634 0.0087474459433
          -0.014219120145 0.00043459236622 0.0027134076809 -0.0014317780733 0.0012616140302 -208333333.33
          -0.0030935555696 0.0053043228108 0.0011257827282 0.0042858421803 0.0034977319301 208333333.33
          -0.0022929012775 0.0006882250309 0.0044276047847 -0.0035511702299 -0.00071309506893 0.00055846426403
          0.0055724531412 -0.0019839073066 -208333333.33 -0.0048594027758 -0.0024125925556 -0.0013012588024
          -0.0038103312254 0.00021060754079 208333333.33 -0.014318212867 -0.00047099590302 0.00098094175337
          -0.010203287005 0.0030493289232 -0.0041366711957 -0.0024235248566 -0.0016792952083 -208333333.33
          -0.014630481601 -0.00073296308983 0.0037546604872 -0.0059008449316 0.0015980436874 208333333.33
          -0.004375576973 0.0016106814146 0.0052273855545 -0.014016017318 -0.0027473270893 -0.0038471657899
          -0.018385827541 -0.0027961498126 -208333333.33 -0.024127826095 -0.0036196370493 -0.0021486729383
          -0.0074236690998 -0.0012571822444 208333333.33 0.017542541027 -0.00035938620567 0.0027660071501
          -0.0023834258318 0.00065778195858 -0.0082095436519 0.0050764530897 -0.0052160348278 -208333333.33
          -0.0037225931883 0.00037507645902 -0.00035440921783 -0.0049836486578 0.0030079584976 208333333.33
          0.0011417418718 166666666.66 0.0085794962943 -0.0093471556902 166666666.66 0.0007716238033
          0.00029790471308 -83333333.336 -104166666.67 0.0047162829433 -166666666.66 0.0050175637007
          -0.00017705760547 -83333333.331 104166666.66 -0.0010910565034 -0.0016750246286 -208333333.34
          0.0099922852532 -0.0046810358763 0.0068763643503 -0.0048731060815 -0.0017321407795 208333333.33
          -0.0072747706436 0.0027984082699 -208333333.34 -0.0038638567494 0.0016081780195 0.0037467777729
          0.0037403836031 -0.0017022043467 208333333.33 -0.0015602861531 -0.0016791522503 -208333333.34
          -0.010259021976 -0.0035461336374 -0.00082556903362 0.0028856988065 -0.00027622282505 208333333.34
          0.0049804518931 0.001383036375 -208333333.34 0.0051717964525 2.0489096642e-05 -4.8384070396e-05
          0.0041652802902 -0.0013161897659 208333333.34 0.0041883399244 0.00047633051872 -208333333.34
          -0.011656706571 0.0035143345594 0.00068207085133 -0.0017287420633 0.0015823543072 208333333.34
          0.0056308205239 0.001911431551 -208333333.33 -0.0075500412204 -0.0018040984869 -0.0039517730474
          -0.0061527359358 -0.0029900968075 208333333.34 -0.002439555712 0.0017583072186 -208333333.33
          0.0029310016253 0.0044288784266 -0.0069260001183 0.001945617405 0.0015573948622 208333333.34
          0.00014805980027 83333333.331 -104166666.66 0.0024964658078 166666666.66 -0.0047255009413
          0.0037461090833 83333333.336 104166666.67 -0.003451615572 -166666666.67 0.012569019746
          0.0048182308674 -166666666.66 -0.0023831552244 -0.0032363831997 -0.011680656578 -208333333.34
          0.019006088376 -0.016841529054 0.013045236468 0.010553330183 -0.0012116567523 208333333.32