<?xml version="1.0"?>
<VTKFile type="UnstructuredGrid" version="0.1" byte_order="LittleEndian" header_type="UInt32">
  <UnstructuredGrid>
    <FieldData>
      <DataArray type="Int8" Name="IntegrationPointMetaData" NumberOfTuples="237" format="ascii" RangeMin="34" RangeMax="125">
        123 34 105 110 116 101
        103 114 97 116 105 111
        110 95 112 111 105 110
        116 95 97 114 114 97
        121 115 34 58 91 123
        34 105 110 116 101 103
        114 97 116 105 111 110
        95 111 114 100 101 114
        34 58 50 44 34 110
        97 109 101 34 58 34
        115 105 103 109 97 95
        105 112 34 44 34 110
        117 109 98 101 114 95
        111 102 95 99 111 109
        112 111 110 101 110 116
        115 34 58 54 125 44
        123 34 105 110 116 101
        103 114 97 116 105 111
        110 95 111 114 100 101
        114 34 58 50 44 34
        110 97 109 101 34 58
        34 101 112 115 105 108
        111 110 95 105 112 34
        44 34 110 117 109 98
        101 114 95 111 102 95
        99 111 109 112 111 110
        101 110 116 115 34 58
        54 125 44 123 34 105
        110 116 101 103 114 97
        116 105 111 110 95 111
        114 100 101 114 34 58
        50 44 34 110 97 109
        101 34 58 34 101 112
        115 105 108 111 110 95
        109 95 105 112 34 44
        34 110 117 109 98 101
        114 95 111 102 95 99
        111 109 112 111 110 101
        110 116 115 34 58 54
        125 93 125
      </DataArray>
      <DataArray type="Int8" Name="OGS_VERSION" NumberOfTuples="40" format="ascii" RangeMin="45" RangeMax="121">
        54 46 50 46 48 45
        49 53 45 103 53 51
        56 49 101 101 99 99
        100 46 100 105 114 116
        121 46 50 48 49 57
        48 52 48 49 49 53
        48 52 49 50
      </DataArray>
      <DataArray type="Float64" Name="epsilon_ip" NumberOfComponents="6" NumberOfTuples="1350" format="ascii" RangeMin="7.0710678106e-05" RangeMax="7.0710678117e-05">
        4.9999999994e-05 4.9999999994e-05 -7.4935147215e-19 -1.4727582739e-16 2.6924322153e-18 3.3651862533e-18
        4.9999999994e-05 4.9999999994e-05 -2.068081353e-18 -1.4698414227e-16 -1.4434213593e-18 -3.6130712491e-19
        4.9999999994e-05 4.9999999994e-05 -3.3868112339e-18 -1.4767846664e-16 -5.0497739777e-18 -3.3881228449e-18
        4.9999999993e-05 4.9999999995e-05 3.5574586052e-19 -4.9756808834e-16 2.1343175363e-17 5.4530610419e-20
        4.9999999993e-05 4.9999999995e-05 -5.2634290668e-18 -4.9649957449e-16 1.871202948e-19 -7.6100108244e-19
        4.9999999993e-05 4.9999999995e-05 -1.0882603994e-17 -4.9793524024e-16 -2.0394781531e-17 -9.9934836624e-19
        4.9999999991e-05 4.9999999996e-05 8.1105462977e-18 -8.6001828799e-16 4.0401199574e-17 -2.8319683511e-18
        4.9999999991e-05 4.9999999996e-05 -1.8090736762e-18 -8.5794474822e-16 2.3652508759e-18 -1.0724682911e-18
        4.9999999991e-05 4.9999999996e-05 -1.172869365e-17 -8.5989730156e-16 -3.516001251e-17 1.1298682836e-18
        4.9999999995e-05 4.9999999993e-05 2.0247151972e-18 -4.9645525273e-16 -1.7107818774e-19 2.1677877959e-17
        4.9999999995e-05 4.9999999993e-05 -4.8669814017e-18 -4.9555863544e-16 -1.881755745e-18 2.9346891379e-18
        4.9999999995e-05 4.9999999993e-05 -1.1758678001e-17 -4.9756359627e-16 -3.1745625211e-18 -1.5181107782e-17
        4.9999999994e-05 4.9999999994e-05 -1.4362095323e-18 -1.4565622632e-15 1.3478598294e-17 1.256903183e-17
        4.9999999994e-05 4.9999999994e-05 -1.1596195061e-17 -1.4545587997e-15 5.0493697121e-19 3.8441384114e-18
        4.9999999994e-05 4.9999999994e-05 -2.175618059e-17 -1.4569539718e-15 -1.2041022068e-17 -4.3653638048e-18
        4.9999999992e-05 4.9999999995e-05 4.7270039794e-18 -2.4288361965e-15 2.6680265606e-17 2.5750535501e-18
        4.9999999992e-05 4.9999999995e-05 -8.7012704798e-18 -2.4254881066e-15 2.4960790595e-18 3.5714168804e-18
        4.9999999992e-05 4.9999999995e-05 -2.2129544939e-17 -2.4280336132e-15 -2.1283617656e-17 4.9965305185e-18
        4.9999999996e-05 4.9999999991e-05 1.1489449256e-17 -8.5813521201e-16 -2.1042563259e-18 3.7067729089e-17
        4.9999999996e-05 4.9999999991e-05 -9.7521406119e-19 -8.5650309304e-16 -1.7781514984e-18 3.1865278677e-18
        4.9999999996e-05 4.9999999991e-05 -1.3439877378e-17 -8.5964679376e-16 -1.1677385271e-18 -3.0021513385e-17
        4.9999999995e-05 4.9999999992e-05 6.9161246376e-18 -2.4280641593e-15 6.6126329627e-18 2.1559353961e-17
        4.9999999995e-05 4.9999999992e-05 -7.7846714931e-18 -2.4249778074e-15 1.323448388e-18 4.8374489681e-18
        4.9999999995e-05 4.9999999992e-05 -2.2485467624e-17 -2.4281743648e-15 -3.6598661044e-18 -1.1346597627e-17
        4.9999999994e-05 4.9999999994e-05 1.4941373397e-17 -4.0101744041e-15 1.3876487162e-17 3.7834868377e-18
        4.9999999994e-05 4.9999999994e-05 -1.9955555473e-18 -4.0053696854e-15 3.0341790205e-18 4.0275144076e-18
        4.9999999994e-05 4.9999999994e-05 -1.8932484492e-17 -4.0083775759e-15 -7.4828444519e-18 4.6861660785e-18
        4.9999999994e-05 4.9999999994e-05 1.7298882293e-17 -1.4816301132e-16 3.0780534959e-18 1.7897721112e-18
        4.9999999994e-05 4.9999999994e-05 2.068081353e-18 -1.4713567478e-16 -4.752443275e-18 -4.6715111572e-18
        4.9999999994e-05 4.9999999994e-05 -1.3162719587e-17 -1.4728421258e-16 -1.2241431606e-17 -1.0623086499e-17
        4.9999999993e-05 4.9999999995e-05 2.3266777209e-17 -4.9985664855e-16 2.1719452832e-17 -1.1983911422e-18
        4.9999999993e-05 4.9999999995e-05 5.2634290668e-18 -4.9722549309e-16 -8.8175476154e-18 -5.693180076e-18
        4.9999999993e-05 4.9999999995e-05 -1.2739919075e-17 -4.9766212235e-16 -3.904325518e-17 -9.7994691488e-18
        4.9999999991e-05 4.9999999996e-05 2.258496902e-17 -8.6428036453e-16 5.0614751893e-17 -2.9966707915e-18
        4.9999999991e-05 4.9999999996e-05 1.8090736762e-18 -8.5986136499e-16 -2.686095473e-18 -5.1406453058e-18
        4.9999999991e-05 4.9999999996e-05 -1.8966821668e-17 -8.6032734244e-16 -5.5595970571e-17 -7.0166048721e-18
        4.9999999995e-05 4.9999999993e-05 2.4218072792e-17 -4.9842128227e-16 4.5078362208e-19 1.5679451903e-17
        4.9999999995e-05 4.9999999993e-05 4.8669814017e-18 -4.9572693835e-16 -5.8010732385e-18 -8.6317062003e-18
        4.9999999995e-05 4.9999999993e-05 -1.4484109988e-17 -4.9642530559e-16 -1.1816376166e-17 -3.2348519137e-17
        4.9999999994e-05 4.9999999994e-05 3.2707542092e-17 -1.4555428627e-15 1.004373935e-17 2.3833292135e-18
        4.9999999994e-05 4.9999999994e-05 1.1596195061e-17 -1.453217168e-15 -1.1067670865e-17 -1.0620813246e-17
        4.9999999994e-05 4.9999999994e-05 -9.5151519692e-18 -1.4561394096e-15 -3.2054879964e-17 -2.3384496807e-17
        4.9999999992e-05 4.9999999995e-05 3.1572873151e-17 -2.4253802969e-15 2.90904073e-17 -5.8046264611e-18
        4.9999999992e-05 4.9999999995e-05 8.7012704798e-18 -2.4232217073e-15 -7.0353319162e-18 -7.3091348692e-18
        4.9999999992e-05 4.9999999995e-05 -1.4170332191e-17 -2.4281545997e-15 -4.2868420791e-17 -8.523179029e-18
        4.9999999996e-05 4.9999999991e-05 2.4446595901e-17 -8.6173276159e-16 -8.8472162513e-19 3.9075550879e-17
        4.9999999996e-05 4.9999999991e-05 9.7521406119e-19 -8.5716552372e-16 -5.094606048e-18 -3.0732347862e-18
        4.9999999996e-05 4.9999999991e-05 -2.2496167778e-17 -8.5816755492e-16 -9.2091981328e-18 -4.4711278849e-17
        4.9999999995e-05 4.9999999992e-05 3.2004017412e-17 -2.4242776433e-15 3.7715324102e-18 1.4721592441e-17
        4.9999999995e-05 4.9999999992e-05 7.7846714931e-18 -2.4220334049e-15 -7.5487990262e-18 -6.9538222941e-18
        4.9999999995e-05 4.9999999992e-05 -1.6434674426e-17 -2.4272286342e-15 -1.8749281472e-17 -2.8193815425e-17
        4.9999999994e-05 4.9999999994e-05 2.6962865545e-17 -3.999537181e-15 1.692498711e-17 -1.0000198939e-18
        4.9999999994e-05 4.9999999994e-05 1.9955555473e-18 -3.9994090073e-15 -1.4969314077e-18 -1.7524409606e-18
        4.9999999994e-05 4.9999999994e-05 -2.2971754451e-17 -4.0086087678e-15 -1.9885000271e-17 -2.3099801985e-18
        4.999999999e-05 4.9999999997e-05 4.1980576977e-18 -1.0774153368e-15 5.0588031337e-17 -4.8920768487e-18
        4.999999999e-05 4.9999999997e-05 -4.2286623919e-18 -1.0746805642e-15 1.4596512667e-18 -8.1150278667e-19
        4.999999999e-05 4.9999999997e-05 -1.2655382482e-17 -1.077757932e-15 -4.8807181209e-17 3.6551436383e-18
        4.9999999988e-05 4.9999999999e-05 -1.3224268881e-17 -1.4588208763e-15 8.8485335897e-17 -9.6346603362e-18
        4.9999999988e-05 4.9999999999e-05 -1.2220205903e-17 -1.4556009601e-15 4.0537630199e-18 5.1961874394e-20
        4.9999999988e-05 4.9999999999e-05 -1.1216142925e-17 -1.4597594196e-15 -8.1536249478e-17 1.0099785634e-17
        4.9999999985e-05 5.0000000002e-05 -1.8144491738e-17 -1.8706423753e-15 1.2377783848e-16 -1.4757936772e-17
        4.9999999985e-05 5.0000000002e-05 -7.7096456929e-18 -1.866824265e-15 3.9440451358e-18 4.8552462908e-19
        4.9999999985e-05 5.0000000002e-05 2.7252003522e-18 -1.8718778444e-15 -1.1732890987e-16 1.6075024058e-17
        4.9999999991e-05 4.9999999996e-05 1.3262945487e-18 -3.0236821691e-15 3.348560574e-17 -7.797477598e-18
        4.9999999991e-05 4.9999999996e-05 -1.0241214568e-17 -3.0185372509e-15 1.762916057e-18 3.9372751967e-18
        4.9999999991e-05 4.9999999996e-05 -2.1808723684e-17 -3.0245733959e-15 -3.1254864249e-17 1.6028938474e-17
        4.9999999989e-05 4.9999999999e-05 -1.4343872221e-17 -3.9258019391e-15 6.6954562309e-17 -3.4230058285e-17
        4.9999999989e-05 4.9999999999e-05 -1.6248587801e-17 -3.9195076499e-15 5.6711029558e-18 4.8192755625e-18
        4.9999999989e-05 4.9999999999e-05 -1.8153303382e-17 -3.9258594376e-15 -5.6962958171e-17 4.4160830439e-17
        4.9999999986e-05 5.0000000001e-05 -1.701334652e-17 -4.8583761508e-15 9.6851424371e-17 -6.2747922962e-17
        4.9999999986e-05 5.0000000001e-05 -9.255268564e-18 -4.8507564012e-15 6.0930346834e-18 3.5541651837e-18
[...]
      <PointData>
        <DataArray type="Float64" Name="displacement" NumberOfComponents="3" format="ascii" RangeMin="0" RangeMax="7.0710678119e-05">
          1e-05 1e-05 -3.7423077219e-20 0 1e-05 -4.9904193827e-20
          0 0 -1.2912150208e-19 1e-05 0 -9.123948879e-20
          1e-05 1e-05 0 0 1e-05 0
          0 0 0 1e-05 0 0
          1e-05 1e-05 0 0 1e-05 0
          0 0 0 1e-05 0 0
          1e-05 2e-05 -2.0508966957e-20 0 2e-05 -1.3288149114e-20
          1e-05 2e-05 0 0 2e-05 0
          1e-05 2e-05 0 0 2e-05 0
          1e-05 3e-05 1.0249578402e-21 0 3e-05 1.7288726257e-20
          1e-05 3e-05 0 0 3e-05 0
          1e-05 3e-05 0 0 3e-05 0
          1e-05 4e-05 -3.0214109666e-20 0 4e-05 3.3523485856e-21
          1e-05 4e-05 0 0 4e-05 0
          1e-05 4e-05 0 0 4e-05 0
          1e-05 5e-05 -9.1218860354e-20 0 5e-05 -2.7278712093e-19
          1e-05 5e-05 0 0 5e-05 0
          1e-05 5e-05 0 0 5e-05 0
          2e-05 1e-05 -7.1905298629e-21 2e-05 0 -2.1004558938e-20
          2e-05 1e-05 0 2e-05 0 0
          2e-05 1e-05 0 2e-05 0 0
          2e-05 2e-05 1.7161243652e-20 2e-05 2e-05 0
          2e-05 2e-05 0 2e-05 3e-05 4.4431867101e-20
          2e-05 3e-05 0 2e-05 3e-05 0
          2e-05 4e-05 4.3432595105e-20 2e-05 4e-05 0
          2e-05 4e-05 0 2e-05 5e-05 3.9075220703e-19
          2e-05 5e-05 0 2e-05 5e-05 0
          3e-05 1e-05 -5.4932145807e-21 3e-05 0 -1.8019450504e-21
          3e-05 1e-05 0 3e-05 0 0
          3e-05 1e-05 0 3e-05 0 0
          3e-05 2e-05 3.3128795534e-20 3e-05 2e-05 0
          3e-05 2e-05 0 3e-05 3e-05 -4.462692798e-20
          3e-05 3e-05 0 3e-05 3e-05 0
          3e-05 4e-05 -3.3820622013e-20 3e-05 4e-05 0
          3e-05 4e-05 0 3e-05 5e-05 3.6066845344e-19
          3e-05 5e-05 0 3e-05 5e-05 0
          4e-05 1e-05 -2.5473977616e-20 4e-05 0 1.3500068098e-20
          4e-05 1e-05 0 4e-05 0 0
          4e-05 1e-05 0 4e-05 0 0
          4e-05 2e-05 2.8213523847e-20 4e-05 2e-05 0
          4e-05 2e-05 0 4e-05 3e-05 -4.5362143632e-20
          4e-05 3e-05 0 4e-05 3e-05 0
          4e-05 4e-05 -2.7149724686e-19 4e-05 4e-05 0
          4e-05 4e-05 0 4e-05 5e-05 9.1620292497e-20
          4e-05 5e-05 0 4e-05 5e-05 0
          5e-05 1e-05 -8.7795259742e-20 5e-05 0 -2.6953623091e-19
          5e-05 1e-05 0 5e-05 0 0
          5e-05 1e-05 0 5e-05 0 0
          5e-05 2e-05 3.5492451449e-19 5e-05 2e-05 0
          5e-05 2e-05 0 5e-05 3e-05 3.4307378476e-19
          5e-05 3e-05 0 5e-05 3e-05 0
          5e-05 4e-05 1.2446090364e-19 5e-05 4e-05 0
          5e-05 4e-05 0 5e-05 5e-05 9.9077360915e-19
          5e-05 5e-05 0 5e-05 5e-05 0
          0 0 -5.7593077664e-20 0 0 -5.0732156561e-20
          0 5e-06 0 0 5e-06 -6.5398177814e-20
          0 5e-06 0 0 1e-05 -2.5760749334e-20
          0 1e-05 -3.2765580641e-20 0 1.5e-05 0
          0 1.5e-05 -1.535860457e-19 0 1.5e-05 0
          0 2e-05 -3.0273412879e-20 0 2e-05 -2.2685398314e-20
          0 2.5e-05 0 0 2.5e-05 -1.776786123e-19
          0 2.5e-05 0 0 3e-05 6.702954333e-21
          0 3e-05 5.5085770077e-21 0 3.5e-05 0
          0 3.5e-05 -1.24907536e-19 0 3.5e-05 0
          0 4e-05 9.4137006782e-21 0 4e-05 4.473457845e-21
          0 4.5e-05 0 0 4.5e-05 4.1898680872e-20
          0 4.5e-05 0 0 5e-05 -1.5241931617e-19
          0 5e-05 -1.597634663e-19 5e-06 0 0
          5e-06 0 -6.8647898026e-20 5e-06 0 0
          5e-06 1e-05 0 5e-06 1e-05 1.7911196511e-20
          5e-06 1e-05 0 5e-06 2e-05 0
          5e-06 2e-05 1.4762872347e-19 5e-06 2e-05 0
          5e-06 3e-05 0 5e-06 3e-05 1.9142678867e-19
          5e-06 3e-05 0 5e-06 4e-05 0
          5e-06 4e-05 4.0929351328e-20 5e-06 4e-05 0
          5e-06 5e-05 0 5e-06 5e-05 -2.9546197531e-19
          5e-06 5e-05 0 1e-05 0 -3.5963922046e-20
          1e-05 0 -3.0865047724e-20 1e-05 5e-06 0
          1e-05 5e-06 1.4842261969e-20 1e-05 5e-06 0
          1e-05 1e-05 -6.750594031e-21 1e-05 1e-05 -1.4379182222e-20
          1e-05 1.5e-05 0 1e-05 1.5e-05 -8.5931197316e-20
          1e-05 1.5e-05 0 1e-05 2e-05 -1.5464098812e-20
          1e-05 2e-05 -1.2165045114e-20 1e-05 2.5e-05 0
          1e-05 2.5e-05 -1.1565921022e-19 1e-05 2.5e-05 0
          1e-05 3e-05 1.0539481681e-21 1e-05 3e-05 3.8078846839e-21
          1e-05 3.5e-05 0 1e-05 3.5e-05 -7.3711688799e-20
          1e-05 3.5e-05 0 1e-05 4e-05 -1.2749036974e-20
          1e-05 4e-05 -1.1636935217e-20 1e-05 4.5e-05 0
          1e-05 4.5e-05 4.4507764621e-20 1e-05 4.5e-05 0
          1e-05 5e-05 -5.2551288144e-20 1e-05 5e-05 -5.70957566e-20
          1.5e-05 0 0 1.5e-05 0 -1.4609611928e-19
          1.5e-05 0 0 1.5e-05 1e-05 0
          1.5e-05 1e-05 -8.3408317685e-20 1.5e-05 1e-05 0
          1.5e-05 2e-05 0 1.5e-05 2e-05 8.0272296438e-20
          1.5e-05 2e-05 0 1.5e-05 3e-05 0
          1.5e-05 3e-05 1.1643828751e-19 1.5e-05 3e-05 0
          1.5e-05 4e-05 0 1.5e-05 4e-05 -3.9754248928e-20
          1.5e-05 4e-05 0 1.5e-05 5e-05 0
          1.5e-05 5e-05 -1.3097495181e-19 1.5e-05 5e-05 0
          2e-05 0 -5.9731680571e-21 2e-05 0 -1.1391443999e-20
          2e-05 5e-06 0 2e-05 5e-06 1.3547471775e-19
          2e-05 5e-06 0 2e-05 1e-05 4.5021526871e-21
          2e-05 1e-05 1.6627025339e-21 2e-05 1.5e-05 0
          2e-05 1.5e-05 6.7397756332e-20 2e-05 1.5e-05 0
          2e-05 2e-05 2.0518798369e-20 2e-05 2e-05 1.8430202436e-20
          2e-05 2.5e-05 0 2e-05 2.5e-05 -1.2775813743e-20
          2e-05 2.5e-05 0 2e-05 3e-05 4.7867075393e-20
          2e-05 3e-05 4.2579853335e-20 2e-05 3.5e-05 0
          2e-05 3.5e-05 1.1584982801e-19 2e-05 3.5e-05 0
          2e-05 4e-05 2.0546099413e-20 2e-05 4e-05 2.0022856978e-20
          2e-05 4.5e-05 0 2e-05 4.5e-05 1.9451064827e-19
          2e-05 4.5e-05 0 2e-05 5e-05 2.3411295406e-19
          2e-05 5e-05 2.3397568485e-19 2.5e-05 0 0
          2.5e-05 0 -1.8905693244e-19 2.5e-05 0 0
          2.5e-05 1e-05 0 2.5e-05 1e-05 -1.5566882686e-19
          2.5e-05 1e-05 0 2.5e-05 2e-05 0
          2.5e-05 2e-05 -4.0139072415e-21 2.5e-05 2e-05 0
          2.5e-05 3e-05 0 2.5e-05 3e-05 4.8552664156e-20
          2.5e-05 3e-05 0 2.5e-05 4e-05 0
          2.5e-05 4e-05 -7.4797893127e-20 2.5e-05 4e-05 0
          2.5e-05 5e-05 0 2.5e-05 5e-05 1.3320556792e-19
          2.5e-05 5e-05 0 3e-05 0 -2.2273395724e-21
          3e-05 0 3.3364853054e-21 3e-05 5e-06 0
          3e-05 5e-06 1.6352942522e-19 3e-05 5e-06 0
          3e-05 1e-05 -3.4854253466e-21 3e-05 1e-05 -5.2700580213e-21
          3e-05 1.5e-05 0 3e-05 1.5e-05 1.0028669833e-19
          3e-05 1.5e-05 0 3e-05 2e-05 3.696283291e-20
          3e-05 2e-05 4.2006722473e-20 3e-05 2.5e-05 0
          3e-05 2.5e-05 5.4946297322e-20 3e-05 2.5e-05 0
          3e-05 3e-05 -2.5466871904e-20 3e-05 3e-05 -2.5163977649e-20
          3e-05 3.5e-05 0 3e-05 3.5e-05 -1.0768951298e-19
          3e-05 3.5e-05 0 3e-05 4e-05 -2.1177451789e-20
          3e-05 4e-05 -1.8952384587e-20 3e-05 4.5e-05 0
          3e-05 4.5e-05 5.2449460872e-20 3e-05 4.5e-05 0
          3e-05 5e-05 2.220692491e-19 3e-05 5e-05 2.2123200142e-19
          3.5e-05 0 0 3.5e-05 0 -1.5558352369e-19
          3.5e-05 0 0 3.5e-05 1e-05 0
          3.5e-05 1e-05 -9.2556658547e-20 3.5e-05 1e-05 0
          3.5e-05 2e-05 0 3.5e-05 2e-05 8.0709122255e-20
          3.5e-05 2e-05 0 3.5e-05 3e-05 0
          3.5e-05 3e-05 -9.3869353359e-20 3.5e-05 3e-05 0
          3.5e-05 4e-05 0 3.5e-05 4e-05 1.3717334613e-19
          3.5e-05 4e-05 0 3.5e-05 5e-05 0
          3.5e-05 5e-05 2.6389069657e-19 3.5e-05 5e-05 0
          4e-05 0 1.0814573725e-20 4e-05 0 4.8660930106e-21
          4e-05 5e-06 0 4e-05 5e-06 -3.8084696181e-21
          4e-05 5e-06 0 4e-05 1e-05 -7.8455789761e-21
          4e-05 1e-05 -8.618304991e-21 4e-05 1.5e-05 0
          4e-05 1.5e-05 -6.8230930792e-20 4e-05 1.5e-05 0
          4e-05 2e-05 3.2321150704e-20 4e-05 2e-05 1.7276456812e-20
          4e-05 2.5e-05 0 4e-05 2.5e-05 -1.0411984495e-19
          4e-05 2.5e-05 0 4e-05 3e-05 -1.146640614e-20
          4e-05 3e-05 -1.7437997276e-20 4e-05 3.5e-05 0
          4e-05 3.5e-05 1.2421730708e-19 4e-05 3.5e-05 0
          4e-05 4e-05 -1.5926947725e-19 4e-05 4e-05 -1.6133131495e-19
          4e-05 4.5e-05 0 4e-05 4.5e-05 -4.5576305313e-19
          4e-05 4.5e-05 0 4e-05 5e-05 -1.1561597196e-20
          4e-05 5e-05 -1.1000181072e-20 4.5e-05 0 0
          4.5e-05 0 -2.0716731798e-21 4.5e-05 0 0
          4.5e-05 1e-05 0 4.5e-05 1e-05 4.1515976671e-20
          4.5e-05 1e-05 0 4.5e-05 2e-05 0
          4.5e-05 2e-05 1.7596949639e-19 4.5e-05 2e-05 0
          4.5e-05 3e-05 0 4.5e-05 3e-05 3.2090124074e-20
          4.5e-05 3e-05 0 4.5e-05 4e-05 0
          4.5e-05 4e-05 -4.0206171432e-19 4.5e-05 4e-05 0
          4.5e-05 5e-05 0 4.5e-05 5e-05 9.0528698068e-19
          4.5e-05 5e-05 0 5e-05 0 -1.7010700567e-19
          5e-05 0 -1.7185760986e-19 5e-05 5e-06 0
          5e-05 5e-06 -3.7238461617e-19 5e-05 5e-06 0
          5e-05 1e-05 -6.0610624859e-20 5e-05 1e-05 -5.5367803133e-20
          5e-05 1.5e-05 0 5e-05 1.5e-05 -1.7404210597e-19
          5e-05 1.5e-05 0 5e-05 2e-05 2.3217373865e-19
          5e-05 2e-05 2.3015340428e-19 5e-05 2.5e-05 0
          5e-05 2.5e-05 1.2998833613e-19 5e-05 2.5e-05 0
          5e-05 3e-05 2.2532378045e-19 5e-05 3e-05 2.2892087875e-19
          5e-05 3.5e-05 0 5e-05 3.5e-05 2.5341876744e-19
          5e-05 3.5e-05 0 5e-05 4e-05 3.6569465207e-20
          5e-05 4e-05 3.0073438376e-20 5e-05 4.5e-05 0
          5e-05 4.5e-05 8.9047336778e-19 5e-05 4.5e-05 0
          5e-05 5e-05 7.7989338616e-19 5e-05 5e-05 7.977810684e-19
        </DataArray>
        <DataArray type="Float64" Name="epsilon" NumberOfComponents="6" format="ascii" RangeMin="7.0710678106e-05" RangeMax="7.0710678118e-05">
          4.9999999993e-05 4.9999999993e-05 -4.6397401417e-18 -5.1878654758e-15 -5.8525359071e-18 -2.1078150752e-18
          4.9999999991e-05 4.9999999996e-05 -6.985017947e-18 -4.6327048263e-16 -1.179316326e-17 -5.8064651325e-18
          4.9999999993e-05 4.9999999993e-05 -9.5411484797e-18 -9.7951763157e-21 -1.9845276518e-18 -1.8339477796e-18
          4.9999999996e-05 4.9999999991e-05 -7.1103872406e-18 -4.6088632589e-16 -5.4344932578e-18 -7.8263914471e-18
          4.9999999993e-05 4.9999999993e-05 -1.6753361178e-17 -5.1896487696e-15 -6.6677706676e-18 1.0110034763e-17
          4.9999999991e-05 4.9999999996e-05 -8.1379496978e-18 -4.6309831661e-16 -5.7472580666e-17 -1.7255446368e-20
          4.9999999993e-05 4.9999999993e-05 3.650949313e-18 -1.8722444018e-20 5.306318592e-20 -3.5417970952e-20
          4.9999999996e-05 4.9999999991e-05 -1.1715599005e-17 -4.6341677199e-16 3.6274965067e-20 -5.3829288977e-17
          4.9999999993e-05 4.9999999993e-05 2.6032841462e-17 -5.1841374168e-15 2.460964627e-17 -3.2490488112e-18
          4.9999999991e-05 4.9999999996e-05 2.2107985592e-17 -4.7222973172e-16 8.9304743561e-17 -1.1129569693e-20
          4.9999999993e-05 4.9999999993e-05 1.5431347646e-17 -2.5075016682e-20 -2.5977940789e-20 4.5438789523e-20
          4.9999999996e-05 4.9999999991e-05 2.5936373486e-17 -4.6915999194e-16 -2.7990344054e-21 7.3422903982e-17
          4.9999999986e-05 5e-05 1.1471451139e-18 -8.6128718888e-15 1.1625810251e-18 -1.6880319073e-18
          4.9999999984e-05 5.0000000003e-05 -1.9728889391e-18 -1.0970396639e-15 1.160636266e-18 -8.586269576e-19
          4.9999999986e-05 5e-05 7.1414644897e-18 -8.61114662e-15 -7.5404678933e-17 1.9312768792e-16
          4.9999999984e-05 5.0000000003e-05 1.4610725946e-17 -1.0997980912e-15 -1.7919420436e-16 -1.4547235603e-20
          4.9999999986e-05 5e-05 -9.4357547176e-18 -8.6142439559e-15 7.8665082526e-17 -1.8379773551e-16
          4.9999999984e-05 5.0000000003e-05 -1.0664948068e-17 -1.0958517066e-15 1.8152975459e-16 1.2087914096e-20
          4.999999998e-05 5.0000000007e-05 2.4007419444e-18 -8.92243993e-15 1.3750617349e-17 -3.0351901201e-19
          4.9999999978e-05 5.0000000009e-05 -1.4406302068e-18 -2.0065100378e-15 1.2519478178e-17 4.4825078318e-18
          4.999999998e-05 5.0000000007e-05 1.0621236178e-17 -8.921683412e-15 -2.2489918698e-16 3.0193293157e-16
          4.9999999978e-05 5.0000000009e-05 2.4317761987e-17 -2.0091218047e-15 -3.4274304027e-16 3.6029259279e-21
          4.999999998e-05 5.0000000007e-05 -1.5422720067e-17 -8.9209448452e-15 1.8194489697e-16 -2.9940994014e-16
          4.9999999978e-05 5.0000000009e-05 -2.1436501574e-17 -1.9973940319e-15 2.9817793977e-16 -1.0834964468e-20
          4.9999999981e-05 5.0000000009e-05 -3.2688545788e-18 -6.3681086335e-15 -2.4118322168e-18 6.3941086458e-18
          4.9999999981e-05 5.000000001e-05 -8.5141427648e-18 -2.7716556559e-15 -5.9300509906e-18 -2.2127973651e-18
          4.9999999981e-05 5.0000000009e-05 -5.4211177463e-18 -6.3690329134e-15 -3.4290579978e-16 2.7517558345e-16
          4.9999999981e-05 5.000000001e-05 7.0231982079e-18 -2.7719365671e-15 -4.1840468459e-16 -2.7320614937e-21
          4.9999999981e-05 5.0000000009e-05 1.1958826904e-17 -6.3670117142e-15 3.3638431724e-16 -2.9524522469e-16
          4.9999999981e-05 5.000000001e-05 1.0005087322e-17 -2.7733698164e-15 4.1266666474e-16 2.652875631e-21
          4.9999999992e-05 5.0000000005e-05 -7.3410979955e-18 -1.2669492217e-15 4.8392223642e-18 5.8670140626e-18
          4.9999999994e-05 5.0000000005e-05 -1.3186792749e-17 -3.1377689357e-15 4.6026325513e-18 -9.5427460357e-18
          4.9999999992e-05 5.0000000005e-05 -1.0838946885e-17 -1.2600427741e-15 -4.3370873757e-16 1.2396423669e-16
          4.9999999994e-05 5.0000000005e-05 -2.6508902045e-18 -3.1373035518e-15 -4.807853195e-16 2.3531104316e-20
          4.9999999992e-05 5.0000000005e-05 2.5521142876e-17 -1.2702759819e-15 4.4336215502e-16 -1.4657745044e-16
          4.9999999994e-05 5.0000000005e-05 2.9024475702e-17 -3.137755168e-15 4.8952644173e-16 1.7691151456e-20
          5e-05 4.9999999986e-05 2.1698317314e-18 -8.6134433717e-15 -1.0300406355e-18 -1.0768924869e-17
          5.0000000003e-05 4.9999999984e-05 -8.0205839646e-19 -1.0874240756e-15 -1.8641722196e-18 -1.5767851773e-17
          5e-05 4.9999999986e-05 -2.6374037886e-18 -8.6134735193e-15 1.5809228657e-16 4.2245013975e-18
          5.0000000003e-05 4.9999999984e-05 -1.4193294546e-18 -1.0826291258e-15 4.288513486e-20 -9.8952025878e-17
          5e-05 4.9999999986e-05 -1.7022596743e-18 -8.6117032071e-15 -1.5140736277e-16 3.9542773547e-17
          5.0000000003e-05 4.9999999984e-05 3.0234462475e-18 -1.0947561208e-15 1.6096873571e-20 1.5537489897e-16
          4.9999999993e-05 4.9999999993e-05 8.2911342964e-18 -1.4178653181e-14 -6.8813532946e-18 -1.2329127496e-17
          4.9999999993e-05 4.9999999993e-05 1.7218712737e-17 -1.417642609e-14 2.551810532e-16 3.2099250723e-16
          4.9999999993e-05 4.9999999993e-05 -3.380098133e-17 -1.4181698313e-14 -2.2408250836e-16 -2.6994377655e-16
          4.9999999986e-05 5.0000000001e-05 9.0623159372e-18 -1.4322591117e-14 3.306737453e-18 -8.8095176535e-18
          4.9999999986e-05 5.0000000001e-05 1.2190903873e-17 -1.432228179e-14 1.8697981205e-16 5.5059517093e-16
          4.9999999986e-05 5.0000000001e-05 -3.0315535748e-17 -1.4323897778e-14 -1.8696832939e-16 -5.1255212477e-16
          4.9999999983e-05 5.0000000005e-05 2.8413473427e-18 -1.0034220143e-14 -5.9103847726e-18 6.8205394701e-19
          4.9999999983e-05 5.0000000005e-05 3.0931827061e-18 -1.0036996527e-14 3.2447199946e-17 5.4137661859e-16
          4.9999999983e-05 5.0000000005e-05 -8.7758773915e-18 -1.0035527762e-14 -1.2724831998e-17 -5.433625252e-16
          4.9999999985e-05 5.0000000005e-05 -2.2868124171e-18 -1.9126917869e-15 -2.0002552604e-18 5.8374590088e-19
          4.9999999985e-05 5.0000000005e-05 9.4887819061e-18 -1.9045646239e-15 -9.054442602e-17 1.1598144179e-16
          4.9999999985e-05 5.0000000005e-05 -4.9151570719e-18 -1.9117844421e-15 1.2312249665e-16 -1.2458326712e-16
          5.0000000007e-05 4.999999998e-05 3.8729934659e-18 -8.923101339e-15 6.4129522836e-18 -3.5715325588e-18
          5.0000000009e-05 4.9999999978e-05 1.485657528e-20 -1.9940636579e-15 6.215719638e-19 -1.1015454079e-17
          5.0000000007e-05 4.999999998e-05 -3.8259245706e-18 -8.9233261216e-15 2.6647352623e-16 -1.3012770444e-16
          5.0000000009e-05 4.9999999978e-05 5.0823468061e-19 -1.9882990219e-15 4.6598811503e-20 -2.3680389011e-16
          5.0000000007e-05 4.999999998e-05 -3.9200623611e-18 -8.9182508304e-15 -2.8246241181e-16 1.4378166114e-16
          5.0000000009e-05 4.9999999978e-05 -5.3794783117e-19 -1.997718082e-15 -4.8013316636e-20 2.6991193297e-16
          5.0000000001e-05 4.9999999986e-05 1.0204234428e-17 -1.4322146691e-14 -9.1882512705e-18 -2.3444398812e-18
          5.0000000001e-05 4.9999999986e-05 8.9243062037e-18 -1.4320391308e-14 5.1611519302e-16 2.6679752559e-16
          5.0000000001e-05 4.9999999986e-05 -2.933277506e-17 -1.4322377977e-14 -4.7887122032e-16 -2.4513696085e-16
          4.9999999994e-05 4.9999999994e-05 9.8373081104e-18 -1.2940283078e-14 -5.2821840111e-18 -3.0038167334e-18
          4.9999999994e-05 4.9999999994e-05 -2.6886256035e-19 -1.2939663191e-14 6.1950554908e-16 6.9000788052e-16
          4.9999999994e-05 4.9999999994e-05 -1.9405753661e-17 -1.2939745939e-14 -5.9287521195e-16 -6.7036477555e-16
          4.9999999988e-05 4.9999999999e-05 2.7599385233e-18 -6.7929713445e-15 1.8472375178e-18 4.2495755318e-18
          4.9999999988e-05 4.9999999999e-05 -1.3070594008e-18 -6.7972159613e-15 6.0001255581e-16 7.6107396051e-16
          4.9999999988e-05 4.9999999999e-05 -4.2128176459e-18 -6.7885887036e-15 -6.0192448557e-16 -7.7802881621e-16
          4.9999999978e-05 5.0000000004e-05 -3.6407477876e-18 -2.5816301645e-15 1.1058593221e-17 6.9681162634e-18
          4.9999999978e-05 5.0000000004e-05 1.9408440342e-17 -2.5866851886e-15 5.1472601558e-16 3.151899016e-16
          4.9999999978e-05 5.0000000004e-05 -1.2126944767e-17 -2.5840035882e-15 -5.3916896432e-16 -3.4037701024e-16
          5.0000000009e-05 4.9999999981e-05 -4.1885900456e-18 -6.3687709315e-15 1.1302557577e-17 5.3809167194e-18
          5.000000001e-05 4.9999999981e-05 -9.9362720314e-18 -2.7592573221e-15 -2.5321525803e-18 1.9679505691e-19
          5.0000000009e-05 4.9999999981e-05 -9.772373912e-19 -6.3688299767e-15 2.388510978e-16 -2.7929410144e-16
          5.000000001e-05 4.9999999981e-05 4.756261803e-18 -2.7624259941e-15 5.550057302e-20 -3.4565070587e-16
          5.0000000009e-05 4.9999999981e-05 9.3544174825e-18 -6.3682377937e-15 -2.7006212281e-16 2.5337177891e-16
          5.000000001e-05 4.9999999981e-05 1.511628226e-17 -2.7569759674e-15 -1.4356112338e-20 3.2899624777e-16
          5.0000000005e-05 4.9999999983e-05 3.6535367821e-18 -1.0033798295e-14 -1.3162579963e-17 -4.4461852083e-19
          5.0000000005e-05 4.9999999983e-05 6.4783495604e-18 -1.0031919505e-14 5.347267988e-16 1.0270875497e-16
          5.0000000005e-05 4.9999999983e-05 -1.3785423125e-17 -1.0038920971e-14 -4.9247705093e-16 -9.5608032206e-17
          4.9999999999e-05 4.9999999988e-05 4.4575549639e-18 -6.7933835875e-15 -1.3094208332e-17 -1.0350839408e-18
          4.9999999999e-05 4.9999999988e-05 -1.1291611136e-17 -6.7924489737e-15 7.0369220057e-16 6.9617978918e-16
          4.9999999999e-05 4.9999999988e-05 2.3765012078e-18 -6.7922767684e-15 -6.6588337889e-16 -6.8862302543e-16
          4.9999999994e-05 4.9999999994e-05 -1.29433482e-18 1.0899243415e-15 1.5097534963e-17 7.4088033404e-18
          4.9999999994e-05 4.9999999994e-05 -1.1934373101e-17 1.08799159e-15 7.2807936961e-16 8.3134644173e-16
          4.9999999994e-05 4.9999999994e-05 1.4523042741e-17 1.0930688185e-15 -7.7363209156e-16 -8.5504761545e-16
          4.9999999986e-05 5e-05 -8.0534962642e-18 -3.3832362371e-15 2.4524436899e-17 5.7258376043e-18
          4.9999999986e-05 5e-05 2.0165121502e-17 -3.3831351626e-15 7.0198587554e-16 6.4123410036e-16
          4.9999999986e-05 5e-05 -4.0581289735e-18 -3.3887635194e-15 -7.9316863215e-16 -6.576150902e-16
          5.0000000005e-05 4.9999999992e-05 -8.3535634048e-18 -1.2582002713e-15 6.493670975e-18 1.6229470575e-17