<?xml version="1.0"?>
<VTKFile type="UnstructuredGrid" version="0.1" byte_order="LittleEndian" header_type="UInt32">
  <UnstructuredGrid>
    <FieldData>
      <DataArray type="Int8" Name="IntegrationPointMetaData" NumberOfTuples="97" format="ascii" RangeMin="34" RangeMax="125">
        123 34 105 110 116 101
        103 114 97 116 105 111
        110 95 112 111 105 110
        116 95 97 114 114 97
        121 115 34 58 91 123
        34 105 110 116 101 103
        114 97 116 105 111 110
        95 111 114 100 101 114
        34 58 50 44 34 110
        97 109 101 34 58 34
        115 105 103 109 97 95
        105 112 34 44 34 110
        117 109 98 101 114 95
        111 102 95 99 111 109
        112 111 110 101 110 116
        115 34 58 54 125 93
        125
      </DataArray>
      <DataArray type="Int8" Name="OGS_VERSION" NumberOfTuples="40" format="ascii" RangeMin="45" RangeMax="121">
        54 46 50 46 48 45
        49 53 45 103 53 51
        56 49 101 101 99 99
        100 46 100 105 114 116
        121 46 50 48 49 57
        48 52 48 49 49 53
        48 52 49 50
      </DataArray>
      <DataArray type="Float64" Name="sigma_ip" NumberOfComponents="6" NumberOfTuples="3456" format="ascii" RangeMin="1414211.5105" RangeMax="1414215.2023">
        0.60760850144 0.030405452404 0.027159481626 1000000.2836 0.044060561689 999999.76487
        1.7163106518 0.58870590463 0.15767622771 999999.98537 0.0063812234129 999999.81331
        2.5855993257 1.0430565266 0.25614573253 999999.73352 -0.037929662954 999999.89128
        0.10687549689 -0.047693513243 0.047615317127 1000000.1286 0.015421873532 999999.80275
        0.58495924567 0.26206156981 0.11541879425 1000000.0319 -0.017362715145 999999.77218
        0.77699912804 0.45105774956 0.14525401227 999999.95925 -0.056778852016 999999.74835
        -0.33819610825 -0.10665921806 0.071258649282 1000000.0799 -0.0079272080276 999999.83481
        -0.10610158283 0.093199557419 0.12518815838 1000000.1519 -0.035817047007 999999.72969
        -0.20668131319 0.15549035667 0.13522839308 1000000.2256 -0.070338434244 999999.60854
        0.67783343111 -0.36152061437 0.098897862124 1000000.061 0.098749596265 999999.62264
        1.2315889879 0.22755056243 0.094338119183 999999.92017 0.010279433261 999999.59903
        1.5208051954 0.64296971404 0.048880515836 999999.81081 -0.10761153809 999999.60496
        0.13360957432 -0.15973924479 0.16784324702 1000000.026 0.035717957767 999999.7655
        0.52299761986 0.27592402973 0.21943515633 1000000.0307 -0.031036689673 999999.79306
        0.60121592673 0.52112620612 0.22420818996 1000000.0445 -0.12721214532 999999.82737
        -0.35995702231 0.05617124629 0.22600623997 1000000.0973 -0.003846385251 999999.83439
        0.24969269174 0.47707568133 0.38258910728 1000000.2147 -0.04888551623 999999.91758
        0.50154227559 0.69070994397 0.48643207656 1000000.3189 -0.12334545643 999999.98474
        0.98943509075 -0.30863859274 0.5647614959 999999.78295 0.0035933419975 999999.59138
        0.78647588025 -0.24852588141 0.35405217622 999999.95229 -0.013755570217 999999.49573
        0.29385144441 -0.43176739702 0.093594373418 1000000.1382 -0.083314551809 999999.42962
        0.26522253522 0.036525267552 0.30113993938 999999.86796 0.0053537846155 999999.75458
        0.36414670459 0.038367542976 0.26544719732 1000000.1268 0.026541154671 999999.84027
        0.12677525993 -0.21995347816 0.17408495512 1000000.3799 -0.0044815430868 999999.93271
        -0.41333689639 0.39081411125 0.012766113055 1000000.0592 0.048759212764 999999.77564
        0.37209982976 0.47303501211 0.20092924448 1000000.3747 0.10848286486 1000000.0471
        0.77461055216 0.2782835421 0.32750186094 1000000.6622 0.11599644822 1000000.3026
        2.3109379977 1.001462868 0.28597807098 999999.42909 -0.026025547912 999999.93318
        1.1687193104 0.40804614997 0.14596737174 999999.77797 -0.052745290996 999999.91434
        0.40920670161 -0.032184619037 0.055973261545 1000000.2288 -0.076592686329 999999.86961
        0.15001155336 0.26815559496 0.024947602462 999999.70531 -0.0011200212024 999999.87649
        0.012496792992 0.055916263536 0.005908145275 999999.82615 -0.023827060671 999999.8748
        -0.078480235624 -0.12431727999 -0.0058005831835 1000000.0681 -0.043661752583 999999.85709
        -1.3231491856 -0.22232390034 -0.16997830501 1000000.0364 0.019495507058 999999.79339
        -0.78356398019 -0.17147876306 -0.10964489602 999999.95578 0.00080117107889 999999.8333
        -0.53360938958 -0.20980799804 -0.084666618779 1000000.0156 -0.015020817298 999999.86706
        0.82660541038 0.65637455069 0.21397066507 999999.84053 0.0082977758467 1000000.3388
        0.44165912817 0.018351306702 0.21601619623 999999.96082 -0.085401185919 1000000.1585
        0.46110320359 -0.4063311885 0.2757166296 1000000.0755 -0.16635700205 999999.95228
        -0.10960227918 0.50364113225 0.080240794018 1000000.0929 0.056317500523 1000000.0495
        -0.12177035824 0.08431985231 0.10032363043 1000000.0551 -0.019579135359 999999.98445
        -0.065716426104 -0.24284083958 0.13537550974 1000000.0309 -0.082732625329 999999.90334
        -0.38541856643 0.56636118733 -0.063804443989 1000000.4001 0.085304682847 999999.79194
        -0.35241240211 0.24764895638 -0.067282676097 1000000.2307 0.027210373033 999999.86652
        -0.58735257369 -0.10008284817 -0.098477726198 1000000.0942 -0.018140790938 999999.93493
        -0.8293138771 -0.3529341139 0.34032165271 1000000.6289 0.23434911592 1000000.5906
        -0.26010505883 -0.48938759764 0.55377558478 1000000.3125 0.11215747662 1000000.2489
        0.73517839618 -0.35234553427 0.83252273431 999999.883 0.012579781441 999999.88122
        -0.58389395055 0.031815181961 0.21359628589 1000000.8574 0.20869960604 1000000.1842
        -0.27383265195 -0.048411759104 0.3421535889 1000000.4527 0.11809991509 1000000.0557
        0.12613493708 0.02367668807 0.49331824797 999999.95425 0.050114168302 999999.91119
        0.29454307997 0.6046436558 0.00013563210523 1000001.1408 0.14927501019 999999.86744
        0.01785289543 0.46255033629 0.0021979251418 1000000.6745 0.090267266575 999999.97667
        -0.50509934394 0.35159224793 -0.015818285212 1000000.1335 0.053873468137 1000000.0797
        -0.45359779999 0.1047544982 0.075808289934 1000000.1887 -0.01723647108 999999.83146
        -0.28819207852 0.019076017962 0.099970278244 1000000.2651 0.0082919224301 999999.73176
        -0.44648551414 -0.11312177184 0.089578543574 1000000.3626 0.03679122175 999999.61235
        -0.64238096394 -0.055894281887 -0.034389704513 1000000.4466 0.017415581844 999999.79835
        -0.30110643507 -0.017749610527 0.0090783928125 1000000.3876 0.025565432304 999999.78202
        -0.33108442475 -0.043266029861 0.011954552517 1000000.4382 0.036686188159 999999.75621
        -0.58941358484 -0.12718694938 -0.10467756035 1000000.6116 0.03932743086 999999.77558
        -0.043183230224 0.045266005607 -0.038209954424 1000000.4962 0.030098738119 999999.83203
        0.084241245217 0.13691608935 -0.018372498116 1000000.579 0.023840950871 999999.88919
        -0.34739160893 0.7245796819 0.26189268701 1000000.2992 -0.056639332456 999999.8282
        0.086466536245 0.36967711725 0.34344347225 1000000.3399 -0.012533562166 999999.92596
        0.2965262507 0.24539187769 0.42563068839 1000000.3863 0.044752605151 1000000.004
        -0.61508758212 0.26678984007 0.051668016781 1000000.4751 0.069937637317 999999.78915
        -0.14868619565 0.19170176056 0.12392936263 1000000.4655 0.036943645492 999999.87159
        0.046363400457 0.33008922759 0.19078892877 1000000.5503 0.017130051293 999999.94455
        -0.62915126218 -0.08976214103 -0.085476626595 1000000.558 0.13999279755 999999.7553
        -0.10111961349 0.12544940086 -0.018811315528 1000000.5772 0.029899044714 999999.81181
        0.10800688194 0.53699470564 0.036413998572 1000000.7794 -0.06701431137 999999.86904
        -0.57070380362 0.69835407083 -0.036696347038 1000000.426 -0.065321494122 999999.75337
        0.21718969048 0.31164475566 0.13238992273 1000000.3602 -0.10976620385 1000000.0486
        0.88118548026 0.43268940144 0.33730277585 1000000.2849 -0.13082102606 1000000.3241
        -0.79736776882 0.06336798475 -0.012101745364 1000000.5198 0.11110960927 999999.74754
        -0.12025659746 0.1124644911 0.11909954143 1000000.4889 -0.070156082111 999999.92875
        0.38540351004 0.65217317913 0.28008920225 1000000.5373 -0.22803188395 1000000.1005
        -0.75851768587 -0.45849848432 0.11874278091 1000000.5206 0.18723729893 999999.74176
        -0.16310181989 0.036888974245 0.21575248201 1000000.6038 -0.13084937355 999999.79833
        0.2133096206 1.0057468337 0.33651234128 1000000.8548 -0.42554615636 999999.85563
        -1.5136442178 -0.57916490023 -0.22355799053 1000000.3009 0.031559612449 999999.77705
        -0.85915045757 -0.16315454155 -0.11856565119 1000000.1399 -0.00051254092088 999999.82607
        -0.60661726298 0.050624436885 -0.069964559832 1000000.14 -0.035282716482 999999.8691
        -0.9482302015 -0.28828026155 -0.12861990232 1000000.2611 -0.0003434565447 999999.81732
        -0.665570455 -0.080819216289 -0.069927441915 1000000.3013 -0.019964782557 999999.84197
        -0.73140766404 -0.056317275992 -0.060837547316 1000000.4301 -0.042284130836 999999.85135
        -0.80282790278 -0.14935314959 -0.089322063386 1000000.3267 -0.016677334471 999999.85183
        -0.60873025943 -0.048329079677 -0.040960285847 1000000.4714 -0.023847832948 999999.85476
        -0.7096659616 -0.11099183991 -0.035412391411 1000000.6325 -0.03371635376 999999.83316
        -0.71149783564 -0.64149439805 -0.24180336865 1000000.8887 0.1931578879 999999.76516
        -0.35894170164 0.25041456031 -0.10312203171 1000000.5116 0.054024887087 999999.87604
        -0.48997805786 0.71363535857 -0.049586889554 1000000.3128 -0.097077867765 999999.98093
        -0.4823154534 -0.17486591465 -0.11944037305 1000000.579 0.0585674023 999999.87415
[...]
      <PointData>
        <DataArray type="Float64" Name="MaterialForces" NumberOfComponents="3" format="ascii" RangeMin="2.2528874632e-05" RangeMax="626.44699704">
          -5.5403326172e-05 0.00021439687082 -0.00033851887694 -250.57855106 7.5092572565e-05 2.4143522893e-05
          -125.28932673 125.2893052 5.0798151861e-05 -5.0258734049e-05 250.57867043 -8.2259018853e-05
          -2.7689451592e-05 0.00019176793883 313.22307357 -125.28931395 6.5788137192e-05 156.61162513
          -62.6446636 62.64467018 78.305802503 -4.1841618859e-05 125.28938006 156.61159148
          -0.00011196453051 7.0055228562e-05 -313.22333643 -125.28928354 3.2097692326e-07 -156.61168201
          -62.644637453 62.644659774 -78.305824188 -3.6312347589e-05 125.28933404 -156.61161247
          0.00016809952545 -2.26625328e-05 -0.0002002681595 -250.57852641 -1.1353384977e-05 -1.9942331207e-05
          -0.0001151590607 1.5254633112e-06 313.22320169 -125.2893206 -9.9169257908e-06 156.61162291
          0.00011345061608 -0.00010656191031 -313.22347558 -125.28927654 -1.830930573e-05 -156.61170061
          0.00011123036287 -5.8180499899e-05 4.8527760015e-06 -250.57860317 -6.2932717157e-05 2.8548396799e-05
          2.6874045517e-05 -2.8531259922e-05 313.22329415 -125.28928575 -2.8584445126e-05 156.61166118
          0.00013321212498 -7.150396489e-05 -313.22331676 -125.28930169 -5.0536292193e-05 -156.61164027
          0.00028246836128 -8.1730447477e-07 -2.2901172514e-06 -250.57859935 -1.8498883989e-06 -2.6966297355e-06
          8.2252061979e-05 -8.2669366392e-06 313.22327294 -125.28929216 3.7396622261e-06 156.61160271
          4.2100904864e-05 7.6719014785e-06 -313.22327495 -125.28930034 -5.5244424573e-06 -156.61160469
          -0.00020786781302 0.00023135464322 -0.00040477012071 0.00012930583018 250.57873683 -0.00010995735431
          -0.00012780228496 0.00016578844988 313.22302893 0.00021654014792 125.28937191 156.61155186
          -0.00032529363376 0.00011181804994 -313.22335031 1.2634560179e-05 125.28932199 -156.61155556
          -6.5856229213e-05 -5.1662562676e-05 -0.00022370256718 -4.2536489872e-05 6.5626691992e-06 313.22329791
          -1.6831856527e-05 -0.0001397309148 -313.22353175 1.6429246664e-05 -9.1678103544e-06 -8.8189315761e-05
          -0.00032313965146 2.8555581508e-05 313.22335934 0.00012632349005 -6.0926801609e-05 -313.22349388
          -8.1480467763e-05 2.2770418866e-05 3.4253145159e-05 -2.8818672106e-05 2.6381247096e-05 313.22333148
          -7.9764248547e-05 -3.8342057991e-06 -313.22329784 -4.0570027039e-05 0.00016629386247 -0.00025166830278
          0.00028231189709 250.5785855 -0.00020590409963 3.7707868863e-05 5.4028031578e-05 313.22314497
          3.854754388e-05 125.28921301 156.61140252 -0.00029746335174 5.4258418011e-05 -313.22331353
          -0.00021392678044 125.28931605 -156.61166438 -0.00020029593534 -3.0847219818e-06 3.3464755546e-05
          -0.00014888573237 -1.7159347792e-06 313.22330344 -0.00018535132389 -4.0182802579e-05 -313.22329784
          -0.00045842418869 2.1009692617e-05 -0.00012624853304 -0.00024416895038 5.5273949165e-05 313.22309189
          -0.00012229463241 1.2053897805e-05 -313.22329117 -0.00045062485609 3.4455596754e-05 5.3523435767e-05
          -0.00020370637705 7.5348060513e-05 313.22316424 -0.0002109463253 -4.1608379057e-05 -313.22311228
          -0.00025315823861 -0.0001701817277 9.0996661015e-05 -0.00019657490591 250.57839786 -8.4119661068e-05
          0.00010965233901 -4.1062072057e-05 313.22326358 0.0001298315621 125.28924202 156.61162856
          -0.00061093794405 -0.00011486234686 -313.223215 -0.00012350485562 125.28923687 -156.61171079
          -0.00064146928107 3.6882609749e-06 0.0002416497891 -0.00037176065691 3.7435999111e-05 313.22325207
          -7.3182566659e-05 -7.1557751127e-05 -313.22306965 -0.00022316441298 0.00011266602681 -0.00020732209698
          -0.00018732054442 7.3310684932e-05 313.22296135 0.00031715649263 2.6709272291e-05 -313.22317265
          -0.00013448918138 1.0128036365e-05 1.6674107613e-05 0.00013611001465 -2.7823898066e-06 313.22309051
          0.000189207404 1.2159616816e-05 -313.22307576 1.5315617468e-05 5.5273180429e-05 -1.3374186196e-05
          -250.57862086 6.0542665928e-05 -3.3647908495e-05 0.00011879036676 7.0713635601e-05 313.22331342
          -125.28930444 4.9389867158e-05 156.61163842 -5.4404015124e-05 2.6872642302e-05 -313.22329844
          -125.28930039 2.7475269647e-05 -156.61166298 0.0001304464809 9.7406799142e-06 0.00017272075215
          -250.57853312 9.397969464e-06 1.24652951e-05 0.00012291027173 0.00010137965006 313.22346276
          -125.28927663 1.7802192396e-05 156.6116983 -0.00016317883449 -8.6731733617e-06 -313.22321496
          -125.28932728 8.6288962677e-06 -156.61162636 3.2374926953e-05 -0.00025316927062 0.00027712243097
          -250.57853276 -8.3385920675e-05 -3.951456074e-05 -2.1725535134e-05 -8.8120933356e-05 313.2233049
          -125.28926817 -3.7164680933e-06 156.61167621 -3.1557625853e-05 -0.00021155937582 -313.22310213
          -125.28931146 -7.0463955382e-05 -156.61163242 -9.1221714342e-06 -250.5786982 4.3398455375e-05
          -125.28931607 -125.28931186 -6.095900271e-05 9.6673647008e-06 -125.289343 156.61159802
          -62.644627245 -62.644662914 78.305820033 -5.1567263164e-05 -125.28939823 -156.61161538
          -62.644663295 -62.644673535 -78.305807336 -0.00013011371799 4.1379469728e-05 0.00013680168813
          9.7240562724e-05 7.8267703969e-05 313.22351834 -0.00044117079916 -1.4001737568e-05 -313.22333613
          -0.00015866418219 5.4546627148e-05 0.00022993282609 -1.8424057359e-05 0.00014300115043 313.22353557
          -0.00013633908041 -6.9462483765e-06 -313.22329563 -0.00018192047192 -0.00024579760766 0.00038643645711
          -0.00023405284377 -0.00011796497895 313.2233426 -0.00019630208405 -0.00017375716972 -313.22303833
          0.00011956394858 -250.57874187 0.00010296034955 5.7438623294e-05 -125.28932524 156.61155212
          0.00015247318566 -125.28937364 -156.61155421 -0.0005533723555 2.9059194901e-05 0.00020576036079
          -0.00016144019138 1.414109088e-05 313.22333051 -0.00030220893732 -3.2606599042e-05 -313.22305445
          -0.00028357466095 1.3857254196e-05 -1.0425432805e-05 -0.00019966560889 4.7318938364e-05 313.22330977
          -0.00022301137532 4.6506690623e-06 -313.22329405 -0.0001283391588 -0.00017586971627 0.00024260313829
          -0.00026956606003 -5.831036372e-05 313.22331053 -8.3964855897e-05 -5.9830854951e-05 -313.22315118
          0.00020255562446 -250.57858791 0.0002020910441 -0.00020049670684 -125.28931847 156.61166177
          -6.3860807508e-05 -125.28921319 -156.61140323 -0.00019513008135 -9.9532478011e-05 0.00022873465406
          0.00028795546905 -2.0071222565e-05 313.22318238 -0.00013357767806 -6.8173449762e-05 -313.22295323
          -0.00057215548513 -1.286778906e-05 -0.0002565743608 -3.9384675873e-05 6.7865894493e-05 313.22306188
          -0.00034329808088 -4.3849649401e-05 -313.22326195 -0.00026526630048 0.00012783720882 -0.00015376368297
          -0.00054967374334 9.4546677701e-05 313.22318233 2.8879745258e-05 1.8669185629e-05 -313.22329576
          -0.00027369897839 -250.57842845 4.0847648435e-05 -0.00010560225991 -125.28924692 156.61169418
          2.4545574163e-05 -125.28926247 -156.61165609 -0.00021028131792 -0.00040531807087 0.00031507758187
          6.2074406046e-05 250.5781887 5.9093400409e-05 2.3633021186e-05 -0.00015489615205 313.22332283
          0.00011112419386 125.28916741 156.6116747 -0.00031308678992 -0.00021353260216 -313.22309604
          -2.2797361638e-05 125.28915991 -156.61166309 -0.00025836538173 7.6954944419e-05 0.00010955337919
          -4.5975247218e-06 0.00012385252795 313.2231131 -4.9331424613e-05 3.6853173512e-05 -313.22298129
          8.7686849525e-05 0.00017991120976 -0.00043948221226 4.3076215839e-05 6.5817464822e-05 313.2230492
          7.963196893e-07 8.4391193859e-05 -313.22333352 -7.8440266911e-05 -1.2473692415e-05 -1.5923376907e-05
          -0.00011819328392 -4.963838871e-05 313.22331108 -2.1318023506e-05 3.6421824724e-05 -313.2233292
          8.4112840462e-05 0.00023159513036 -3.1633064438e-05 3.4328079948e-05 250.57856062 2.7420574753e-05
          6.8771260253e-05 0.00016295991806 313.22322112 4.5889493592e-06 125.28928998 156.61157428
          0.00025474533187 2.6400070645e-05 -313.22325937 -0.00012240049205 125.28921829 -156.61154588
          3.6234658928e-05 0.00027232111125 -0.00026076155459 4.0898194769e-05 9.1482395575e-05 313.22323111
          0.00021928408022 0.00013471891891 -313.22336542 0.00028441872265 0.00013720624979 -0.00053542832308
          0.00041068851162 -6.1925706518e-07 313.22326204 0.00015610686492 0.00010373013458 -313.22359831
          0.00044400059957 -5.9448657197e-06 -3.7420558527e-06 0.00045479769662 -6.299988533e-05 313.22353789
          0.00060091987184 5.6100524539e-05 -313.22354443 9.6758493108e-05 0.00066874719624 -0.00039313705129
          5.3162318665e-05 250.57893313 2.8720149771e-05 -7.0653815179e-05 0.00042468160096 313.22298814
          0.00016291711442 125.2895437 156.61165435 0.00012600480736 0.00025049373391 -313.22324546
          5.1746764619e-05 125.289333 -156.61143532 -0.00044030684469 0.00018037459662 -0.00072565230855
          -0.00041618380228 8.0679820435e-05 313.22301878 0.00011283494998 1.8610381872e-05 -313.2236196
          -0.00052954301344 7.7217595873e-05 -0.00048232804075 2.8031757864e-05 -3.5876213332e-05 313.22326601
          3.8327743646e-05 4.3397318841e-05 -313.22360586 -0.00032929099766 4.4334972173e-06 8.669212491e-06
          -6.9437989133e-05 -2.9021953424e-05 313.22361913 0.00014404981066 3.2806454968e-05 -313.22361177
          250.57848414 0.00036276689783 -0.00013237634333 125.28949608 125.28955454 8.5961430486e-05
          125.28933908 0.00019945260702 156.61148587 62.644418887 62.644782625 78.30581474
          125.28950946 0.00016812868655 -156.6115461 62.644815234 62.644761795 -78.30576151
          250.57848553 -4.547660226e-05 -0.00049622626527 125.2891386 -7.6923012983e-05 156.61145524
          125.28944273 -1.3392703941e-05 -156.61177286 250.57814088 -2.5021046845e-05 -0.00030662015995
          125.28905366 -6.0293058368e-06 156.61168649 125.28946519 4.3652205477e-06 -156.61182446
          250.57778018 -2.8421673903e-07 -7.5184934047e-06 125.28911937 4.5301345629e-05 156.61185718
          125.28924463 -4.5370374302e-05 -156.61187247 0.0001662063984 -0.0001940313225 0.00042125949628
          -4.7507339076e-05 -9.2759406243e-05 313.2233227 0.00016622353485 -7.3100770408e-05 -313.22306082
          -5.1328947691e-05 -7.8829986037e-05 -0.00011286716034 1.7932837167e-05 -3.8456173094e-05 313.22297819
          0.00012748016271 -0.00012556221569 -313.22311697 -4.1162794176e-05 0.00039476703056 -0.00032979665507
          -0.00017084424118 0.00020819335863 313.22308687 4.3183183919e-05 0.00014862314841 -313.22333145
          4.3468243881e-05 -250.57819977 -7.3761077374e-05 2.3194540901e-05 -125.28916334 156.61165733
          3.4834752206e-05 -125.28917536 -156.61168505 0.00027470548528 -0.00013822887498 0.00054090960566
          5.4327021175e-06 -0.00010554827159 313.22359883 0.0005479603313 -5.5305457636e-07 -313.22326241
          0.00019559829197 -0.00025661952695 0.00028997487195 0.0001979991638 -0.00012780792419 313.22337796
          0.00021301254552 -8.4572836251e-05 -313.22321876 0.00026176608656 -0.00020098555365 8.5399317044e-05
          0.00034934593845 -1.1997498753e-05 313.22328539 0.00014336311628 -0.00014826294623 -313.22319581
          2.5440311077e-05 -250.57853781 8.8307222654e-06 -9.3247296519e-05 -125.28921204 156.61155925
          -4.1904761076e-05 -125.28927426 -156.61155195 -0.00063837547926 -8.0800171709e-05 0.00048047340876
          -0.00023357250861 -4.4697000888e-05 313.22360464 0.00018666801734 3.2391592455e-05 -313.22326865
          -0.00039335551256 -0.00019780017818 0.00070336897465 -2.9754432603e-05 -2.7907408338e-05 313.22360526
          -0.00023742835079 -8.9746130335e-05 -313.22302871 0.00010658081323 -0.00066746839862 0.00040125002683
          9.5488183888e-05 -0.00025175265569 313.22324425 -4.2099109002e-05 -0.00042276619863 -313.22298229
          -6.8212364589e-05 -250.57891953 -3.5354180028e-06 2.0763248088e-05 -125.28932843 156.611446
          6.3572313429e-05 -125.28953526 -156.61164162 250.57807835 6.9049277798e-06 0.0002720692334
          125.28930401 -1.2339946061e-05 156.61179597 125.28915009 -3.6930452367e-06 -156.6117094
          250.57848553 1.7636949302e-05 0.00045367078309 125.28934168 -7.1088168596e-07 156.61174649
          125.28923364 6.3533184225e-05 -156.61148376 250.57842322 -0.00035524789343 0.00013731806197
          125.28945904 -0.00016573722916 156.61154791 125.28932164 -0.00019413333798 -156.61148189
          125.28937683 -125.28952658 -6.4402223273e-05 62.644779858 -62.644752263 78.305764943
          62.644328945 -62.644764027 -78.305793682 250.5786411 -250.57854531 -1.5748104799e-05
          250.5786373 -250.5785934 -1.2025935256e-05 250.57865046 -5.7238693425e-05 -313.22318514
          501.15718832 -2.433244121e-05 -5.7916945707e-05 250.57856433 2.0669288944e-05 313.22323962
          501.15716848 -7.4028305789e-05 2.6341220076e-05 501.15720167 -4.6949488507e-05 9.2255937525e-06
          250.57865109 -2.8337051999e-05 -313.22328344 501.15713367 -4.5838226961e-05 -2.8330794407e-05
          250.57865171 -1.1446434621e-05 313.22330631 501.15720539 7.4031390795e-07 4.6299862187e-05
          501.15711332 5.6889560369e-06 5.4159612952e-05 250.57861443 3.564970614e-05 -313.22328917
          501.15729921 5.113141808e-05 -1.7316143385e-05 250.57867295 3.6227869176e-05 313.22330163
          501.15725726 4.2858208531e-05 -2.3397886017e-05 501.15712196 5.7908684823e-05 -2.4299938479e-05
          250.57855503 3.0018583885e-06 -313.22323243 501.15727168 2.92820309e-05 -1.0208715366e-06
          250.57866908 1.7959989452e-05 313.22323124 501.15719047 -1.7721384609e-06 4.6737265567e-05
          501.15719868 5.0497865232e-06 -4.2068521799e-05 250.5786701 -1.6305894937e-05 -313.2232308
          501.15728144 -2.6107259662e-05 4.247630784e-06 250.57856339 -1.6365577944e-06 313.22322875
          501.15712314 -5.7093229174e-05 2.8730879918e-05 501.15727294 -4.3087053882e-05 2.7696602479e-05
          250.57868004 -3.5339750471e-05 -313.22330012 501.15731168 -4.9286162327e-05 1.913326463e-05
          250.57861937 -3.480339417e-05 313.2232858 501.15711435 -9.7609950558e-06 -4.7564113116e-05
          501.15722021 -4.877204077e-06 -3.967137306e-05 250.57865291 1.2751223603e-05 -313.22330983
          501.15712501 4.9930617273e-05 3.0007791452e-05 250.57864171 3.098105556e-05 313.22328522
          501.15719142 4.4231649866e-05 4.9029983843e-06 501.15717828 7.2867973671e-05 -1.2018586432e-05
          250.57855715 -1.5397957887e-05 -313.2232467 501.15716586 3.635968541e-05 6.1669923809e-05
          250.57863582 6.3661690148e-05 313.22318841 250.57862376 250.57859897 2.1697667556e-05
          250.57863991 250.57854788 2.5223233812e-05 0.00010545665921 -250.57855514 -313.22314835
          9.1098748909e-06 -501.15715534 -0.00014843489635 -3.2287492676e-05 -250.57864152 313.2232964
          0.00017142495742 -9.5322141618e-05 -626.44652487 -0.00012703053184 -0.00014297312103 -9.2570299046e-05
          -2.8842572479e-05 -2.154261486e-05 626.44660733 -0.00010844834743 2.4720699713e-05 -626.44660378
          -0.00015339730116 1.1979558167e-05 -9.3098399134e-05 -1.0528330252e-07 1.461901573e-05 626.44668498
          3.8411439024e-05 4.2601919944e-05 -626.44654801 -2.0698349037e-05 0.00012458647936 -1.6975671258e-05
          1.8435832786e-05 5.6313114783e-05 626.44655753 -9.2616253964e-06 -8.3911405397e-06 -626.44647049
          0.00021479773909 1.7674147728e-06 1.992659918e-06 -5.9002574437e-07 1.0132821103e-05 626.44646851
          1.9504840238e-05 -5.6182992637e-05 -626.44655722 -1.2316132769e-05 -0.00012459339072 2.0266305341e-05
          4.4114043815e-05 -4.2753754059e-05 626.44654442 1.1112689273e-05 -1.8236419294e-05 -626.44668839
          -0.00014687501836 -1.7073942331e-05 9.5756563496e-05 -0.00011333574918 -2.6157602463e-05 626.44660452
          -2.3776342935e-05 1.8955319945e-05 -626.44661621 -0.0001325279358 0.00014180519639 9.6607899252e-05
          0.00016292031142 9.6745329643e-05 626.4465297 -3.8952764939e-05 250.57864829 -313.22329676
          4.3752484347e-06 501.15715984 0.0001511271239 0.00010429274158 250.57855287 313.22314602
          5.3279112876e-05 -501.15715106 6.4875497075e-05 -0.00014098762745 -501.1571495 4.3315917911e-05
          0.00014853298111 -0.00023016778265 -626.44645841 0.00029563740316 -0.00022855429362 3.6072263413e-05
          4.2816742365e-05 -0.0001161427417 626.44641477 9.1299650364e-06 -0.00015371504864 0.00037980766648
          7.8084210799e-05 -0.00020681535108 0.00022549049738 6.5212377024e-05 -5.247029782e-05 -626.4466474
          -0.00026706969044 4.2039882305e-06 -7.9446350014e-05 -3.2413020676e-06 0.00010559205866 626.4467154
          4.845257962e-05 4.0907120365e-05 0.00020957157084 -0.00032574787966 3.5542915441e-05 0.00026896277656
          0.00015411062918 3.1713673269e-05 -626.44659081 -2.5957611342e-05 3.35005111e-06 -9.6785463256e-05
          3.8970301802e-05 6.1863994612e-05 626.44667871 4.4084898434e-05 -8.1855560552e-06 -4.5085913926e-05
          -0.00049363492073 6.0159068113e-05 6.5368514742e-05 -4.2359217076e-05 2.2643448261e-05 -626.44660893
          -9.2837134247e-05 4.4097124161e-05 6.888055168e-06 0.00022309132754 2.8424866097e-05 626.44659826
          -0.00019844874683 7.3839669312e-06 -1.6778837127e-05 -0.00015384541794 -2.6955634667e-06 2.1078746121e-05
          0.00021927104456 -2.7825333103e-05 -626.44659837 -3.7048554105e-05 -4.2403275026e-05 -6.5303208885e-07
          1.5701436524e-05 -2.2042286542e-05 626.44660282 -0.00049478477172 -5.9302816027e-05 -5.7252741878e-05
          0.00012327143148 7.9076073973e-06 5.3114092837e-05 6.5487587506e-05 -6.0452768142e-05 -626.44667751
          4.7035577239e-05 2.0784322631e-06 0.00010145749701 0.00019917005449 -2.8112675108e-05 626.44658489
          -0.00033892534287 -4.1542257605e-05 -0.00024237591757 0.00011613153569 -4.5646574449e-05 -0.00018255388114
          -2.3343456121e-05 -9.7985294726e-05 -626.44672148 -0.00030771853326 1.8103356059e-05 8.5660897469e-05
          4.757835066e-05 6.6529083336e-05 626.44664712 -6.3107334825e-06 0.00020707328179 -0.00016519598114
          4.4501259168e-05 0.00015763983137 -0.00031866861014 -3.8842447992e-05 0.00014073084206 -626.44642103
          0.00019337211063 0.00028229916624 -2.5049711837e-05 0.00013080495285 0.00025805392987 626.44645346
          -0.00016234996937 501.15715443 -4.4144610785e-06 0.00010506901017 501.15714726 -2.6590905112e-05
          -0.00011187773738 -250.57861029 -313.22318874 -0.0001643903367 -501.1570555 0.00015348749434
          4.0452371933e-05 -250.57845967 313.2230407 4.3115447607e-05 -8.4068697788e-05 -626.4465881
          2.4122213738e-05 -0.00031542428513 4.685011811e-05 2.7383543451e-05 -0.00016873580992 626.44653121
          6.8115049403e-05 7.3975858783e-05 -626.44666403 2.891423079e-05 6.3767754199e-05 2.1548930704e-05
          -4.5881793314e-05 -1.0806001569e-06 626.44663438 0.0002401745829 -2.1201352752e-05 -626.44662013
          -0.00023770971221 -1.322723719e-05 6.7408394671e-06 -5.1466679315e-05 2.4263846683e-06 626.44660841
          0.00019685027964 2.2975892222e-05 -626.4466283 -0.00024495938098 5.9778813011e-09 8.4355855279e-07
          0.0002344358037 -2.2967039058e-05 626.44662748 -6.1742657728e-05 -4.2974528185e-06 -626.44661134
          -0.00021347959814 1.2335714899e-05 -5.0547879482e-06 0.00027118274119 2.2212713731e-05 626.4466214
          -3.9386584112e-05 -1.7821708411e-06 -626.44663953 3.8349045999e-05 -6.4441424229e-05 -1.9236034973e-05