<?xml version="1.0"?>
<VTKFile type="UnstructuredGrid" version="1.0" byte_order="LittleEndian" header_type="UInt64">
  <UnstructuredGrid>
    <FieldData>
      <DataArray type="Int8" Name="IntegrationPointMetaData" NumberOfTuples="166" format="ascii" RangeMin="34" RangeMax="125">
        123 34 105 110 116 101
        103 114 97 116 105 111
        110 95 112 111 105 110
        116 95 97 114 114 97
        121 115 34 58 91 123
        34 105 110 116 101 103
        114 97 116 105 111 110
        95 111 114 100 101 114
        34 58 51 44 34 110
        97 109 101 34 58 34
        115 105 103 109 97 95
        105 112 34 44 34 110
        117 109 98 101 114 95
        111 102 95 99 111 109
        112 111 110 101 110 116
        115 34 58 52 125 44
        123 34 105 110 116 101
        103 114 97 116 105 111
        110 95 111 114 100 101
        114 34 58 51 44 34
        110 97 109 101 34 58
        34 101 112 115 105 108
        111 110 95 105 112 34
        44 34 110 117 109 98
        101 114 95 111 102 95
        99 111 109 112 111 110
        101 110 116 115 34 58
        52 125 93 125
      </DataArray>
      <DataArray type="Int8" Name="OGS_VERSION" NumberOfTuples="22" format="ascii" RangeMin="45" RangeMax="103">
        54 46 52 46 50 45
        49 49 56 49 45 103
        51 101 51 50 57 57
        57 48 98 48
      </DataArray>
      <DataArray type="Float64" Name="epsilon_ip" NumberOfComponents="4" NumberOfTuples="540" format="ascii" RangeMin="0" RangeMax="0.013660254037852744">
        0 0 0 0 0 0
        0 0 0 0 0 0
        0 0 0 0 0 0
        0 0 0 0 0 0
        0 0 0 0 0 0
        0 0 0 0 0 0
        0 0 0 0 0 0
        0 0 0 0 0 0
        0 0 0 0 0 0
        0 0 0 0 0 0
        0 0 0 0 0 0
        0 0 0 0 0 0
        0 0 0 0 0 0
        0 0 0 0 0 0
        0 0 0 0 0 0
        0 0 0 0 0 0
        0 0 0 0 0 0
        0 0 0 0 0 0
        0 0 0 0 0 0
        0 0 0 0 0 0
        0 0 0 0 0 0
        0 0 0 0 0 0
        0 0 0 0 0 0
        0 0 0 0 0 0
        0 0 0 0 0 0
        0 0 0 0 0 0
        0 0 0 0 0 0
        0 0 0 0 0 0
        0 0 0 0 0 0
        0 0 0 0 0 0
        0 0 0 0 0 0
        0 0 0 0 0 0
        0 0 0 0 0 0
        0 0 0 0 0 0
        0 0 0 0 0 0
        0 0 0 0 0 0
        0 0 0 0 0 0
        0 0 0 -0.01154700538377936 0 -1.2755652486292758e-14
        0 -0.01154700538377936 0 -1.2755652486292758e-14 0 -0.01154700538377936
        0 -1.2755652486292758e-14 0 -0.01154700538377936 0 -1.2755652486292758e-14
        0 -0.011547005383794086 0 -8.727160984373948e-20 0 -0.011547005383794086
        0 -8.727160984373948e-20 0 -0.011547005383794086 0 -8.727160984373948e-20
        0 -0.011547005383794086 0 -8.727160984373948e-20 0 -0.011547005383795685
        0 -1.3845331341991871e-15 0 -0.011547005383795685 0 -1.3845331341991871e-15
        0 -0.011547005383795685 0 -1.3845331341991871e-15 0 -0.011547005383795685
        0 -1.3845331341991871e-15 0 -0.011547005383811763 0 -1.2537716715255448e-14
        0 -0.011547005383811763 0 -1.2537716715255448e-14 0 -0.011547005383811763
        0 -1.2537716715255448e-14 0 -0.011547005383811763 0 -1.2537716715255448e-14
        0 -0.011547005383797286 0 2.8562534909421196e-19 0 -0.011547005383797286
        0 2.8562534909421196e-19 0 -0.011547005383797286 0 2.8562534909421196e-19
        0 -0.011547005383797286 0 2.8562534909421196e-19 0 -0.012055375929701925
        0 0.0004402618073176503 0 -0.012055375929701925 0 0.0004402618073176503
        0 -0.012055375929701925 0 0.0004402618073176503 0 -0.012055375929701925
        0 0.0004402618073176503 0 -0.01154700538376463 0 2.6599919336009877e-19
        0 -0.01154700538376463 0 2.6599919336009877e-19 0 -0.01154700538376463
        0 2.6599919336009877e-19 0 -0.01154700538376463 0 2.6599919336009877e-19
        0 0 0 0 0 0
        0 0 0 0 0 0
        0 0 0 0 0 0
        0 0 0 0 0 0
        0 0 0 0 0 0
        0 0 0 0 0 0
        0 0 0 0 0 0
        0 0 0 0 0 0
        0 0 0 0 0 0
        0 0 0 0 0 0
        0 0 0 0 0 0
        0 0 0 0 0 0
        0 0 0 0 0 0
        0 0 0 0 0 0
        0 0 0 0 0 0
        0 0 0 0 0 0
        0 0 0 0 0 0
        0 0 0 0 0 0
        0 0 0 0 0 0
        0 0 0 0 0 0
        0 0 0 0 0 0
        0 0 0 -0.012564036239103028 0 1.1880302535849473e-19
        0 -0.012564036239103028 0 1.1880302535849473e-19 0 -0.012564036239103028
        0 1.1880302535849473e-19 0 -0.012564036239103028 0 1.1880302535849473e-19
        0 0 0 0 0 0
        0 0 0 0 0 0
        0 0 0 0 0 0
        0 0 0 0 0 0
        0 0 0 0 0 0
        0 0 0 0 0 0
        0 0 0 0 0 0
        0 0 0 0 0 0
        0 0 0 0 0 0
        0 0 0 0 0 0
        0 0 0 0 0 0
        0 0 0 0 0 0
        0 0 0 0 0 0
        0 0 0 0 0 0
        0 0 0 0 0 0
        0 0 0 0 0 0
        0 0 0 0 0 0
        0 0 0 0 0 0
        0 0 0 0 0 0
        0 0 0 0 0 0
        0 0 0 0 0 0
        0 0 0 0 0 0
        0 0 0 0 0 0
        0 0 0 0 0 0
        0 0 0 0 0 0
        0 0 0 0 0 0
        0 0 0 0 0 0
        0 0 0 0 0 0
        0 0 0 0 0 0
        0 0 0 0 0 0
        0 0 0 0 0 0
        0 0 0 0 0 0
        0 0 0 0 0 0
        0 0 0 0 0 0
        0 0 0 0 0 -0.01154700538382624
        0 2.1202726509342137e-19 0 -0.01154700538382624 0 2.1202726509342137e-19
        0 -0.01154700538382624 0 2.1202726509342137e-19 0 -0.01154700538382624
        0 2.1202726509342137e-19 0 0 0 0
        0 0 0 0 0 0
        0 0 0 0 0 0
        0 0 0 0 0 0
        0 0 0 0 0 0
        0 0 0 0 0 0
        0 0 0 0 0 0
        0 0 0 0 0 0
        0 0 0 0 0 0
        0 0 0 0 0 0
        0 0 0 0 0 0
        0 0 0 0 0 0
        0 0 0 0 0 0
        0 0 0 0 0 0
        0 0 0 0 0 0
        0 0 0 0 0 0
        0 0 0 0 0 0
        0 0 0 0 0 0
        0 0 0 0 0 0
        0 0 0 0 0 0
        0 0 0 0 0 0
        0 0 0 0 0 0
        0 0 0 0 0 0
        0 0 0 0 0 0
        0 0 0 0 0 0
        0 0 0 0 0 0
        0 0 0 0 0 0
        0 0 0 0 0 0
        0 0 0 0 0 0
        0 0 0 0 0 0
        0 0 0 0 0 0
        0 0 0 0 0 0
        0 0 0 0 0 0
        0 0 0 0 0 0
        0 0 0 0 0 0
        0 0 0 0 0 0
        0 0 0 0 0 0
        0 0 0 0 0 0
        0 0 0 0 0 0
        0 0 0 0 0 0
        0 0 0 0 0 0
        0 0 0 0 0 0
        0 0 0 0 0 0
        0 0 0 0 0 0
        0 0 0 0 0 0
        0 0 0 0 0 0
        0 0 0 0 0 0
        0 0 0 0 0 0
        0 0 0 0 0 0
        0 0 0 0 0 0
        0 0 0 0 0 0
        0 0 0 0 0 0
        0 0 0 0 0 0
        0 0 0 0 0 0
        0 0 0 0 0 0
        0 0 0 0 0 0
        0 0 0 0 0 0
        0 0 0 0 0 0
        0 0 0 0 0 0
        0 0 0 0 0 0
        0 0 0 0 0 0
        0 0 0 0 0 0
        0 0 0 0 0 0
        0 0 0 0 0 0
        0 0 0 0 0 0
        0 0 0 0 0 0
        0 0 0 0 0 0
        0 0 0 0 0 0
        0 0 0 0 0 0
        0 0 0 0 0 0
        0 0 0 0 0 0
        0 0 0 0 0 0
        0 0 0 -0.010654807839731745 0 -1.3673525842948907e-20
        0 -0.010654807839731745 0 -1.3673525842948907e-20 0 -0.010654807839731745
        0 -1.3673525842948907e-20 0 -0.010654807839731745 0 -1.3673525842948907e-20
        0 0 0 0 0 0
        0 0 0 0 0 0
        0 0 0 0 0 0
        0 0 0 0 0 0
        0 0 0 0 0 0
        0 0 0 0 0 0
        0 0 0 0 0 0
        0 0 0 0 0 0
        0 -0.011435777789080004 0 -0.0008311611161266121 0 -0.011435777789080004
        0 -0.0008311611161266121 0 -0.011435777789080004 0 -0.0008311611161266121
        0 -0.011435777789080004 0 -0.0008311611161266121 0 0
        0 0 0 0 0 0
        0 0 0 0 0 0
        0 0 0 0 0 0
        0 0 0 0 0 0
        0 0 0 0 0 0
        0 -0.013660254037852744 0 2.6599919336009877e-19 0 -0.013660254037852744
        0 2.6599919336009877e-19 0 -0.013660254037852744 0 2.6599919336009877e-19
        0 -0.013660254037852744 0 2.6599919336009877e-19 0 -0.00999999999999999
        0 -0.0018301270189245845 0 -0.00999999999999999 0 -0.0018301270189245845
        0 -0.00999999999999999 0 -0.0018301270189245845 0 -0.00999999999999999
        0 -0.0018301270189245845 0 0 0 0
        0 0 0 0 0 0
        0 0 0 0 0 0
        0 0 0 0 0 0
        0 0 0 0 0 0
        0 0 0 0 0 0
        0 0 0 0 0 0
        0 0 0 0 0 0
        0 0 0 0 0 0
        0 0 0 0 0 0
        0 0 0 0 0 0
        0 0 0 0 0 0
        0 0 0 0 0 0
        0 0 0 0 0 0
        0 0 0 0 0 0
        0 0 0 0 0 0
        0 0 0 0 0 0
        0 0 0 0 0 0
        0 0 0 0 0 0
        0 0 0 0 0 0
        0 0 0 0 0 0
        0 0 0 0 0 0
        0 0 0 0 0 0
        0 0 0 0 0 0
        0 0 0 0 0 0
        0 0 0 0 0 0
        0 0 0 0 0 0
        0 0 0 0 0 0
        0 0 0 0 0 0
        0 0 0 0 0 0
        0 0 0 0 0 0
        0 0 0 0 0 0
        0 0 0 0 0 0
        0 0 0 0 0 0
        0 0 0 0 0 0
        0 0 0 0 0 0
        0 0 0 0 0 0
        0 0 0 0 0 0
        0 0 0 0 0 0
        0 0 0 0 0 0
        0 0 0 0 0 0
        0 0 0 0 0 0
        0 0 0 0 0 0
        0 0 0 0 0 0
        0 0 0 0 0 0
        0 0 0 0 0 0
        0 0 0 0 0 0
        0 0 0 0 0 0
        0 0 0 0 0 0
        0 0 0 0 0 0
        0 0 0 0 0 0
        0 0 0 0 0 0
        0 0 0 0 0 0
        0 0 0 0 0 0
        0 0 0 0 0 0
        0 0 0 0 0 0
        0 0 0 -0.012516373279638391 0 0.00156257017460627
        0 -0.012516373279638391 0 0.00156257017460627 0 -0.012516373279638391
        0 0.00156257017460627 0 -0.012516373279638391 0 0.00156257017460627
        0 0 0 0 0 0
        0 0 0 0 0 0
        0 0 0 0 0 0
        0 0 0 0 0 0
        0 0 0 0 0 0
        0 0 0 0 0 0
        0 0 0 0 0 0
        0 0 0 0 0 0
        0 0 0 0 0 0
        0 0 0 0 0 0
        0 0 0 0 0 0
        0 0 0 0 0 0
        0 0 0 0 0 0
        0 0 0 0 0 0
        0 0 0 0 0 0
        0 0 0 0 0 0
        0 0 0 0 0 0
        0 0 0 0 0 0
        0 0 0 0 0 0
        0 0 0 0 0 0
        0 0 0 0 0 0
        0 0 0 0 0 0
        0 0 0 0 0 0
        0 0 0 0 0 0
        0 0 0 0 0 0
        0 0 0 0 0 0
        0 0 0 0 0 0
        0 0 0 0 0 0
        0 0 0 0 0 0
        0 0 0 0 0 0
        0 0 0 0 0 0
        0 0 0 0 0 0
        0 -0.012262979593406496 0 1.6786841469294016e-19 0 -0.012262979593406496
[...]
      <PointData>
        <DataArray type="Float64" Name="HeatFlowRate" format="ascii" RangeMin="-44.01540270754171" RangeMax="43.63078196029451">
          20.479266403771245 40.69930776431447 39.506336854577036 39.50633685463263 39.50633685468963 41.22615269609357
          39.662939858297506 43.63078196029451 -7.438106819869236 -7.667545109990995e-14 -1.0194049519802005e-13 -1.3173395700863853e-14
          -1.8747205237401915e-14 7.87882317175983e-14 3.112658432720323e-14 4.990320785262802e-15 5.010584759222143e-15 -37.054869587993245
          -2.644714786789436e-14 -35.726024044752535 7.71245477056109e-14 3.5956173885792e-14 -41.801194212541915 -2.643505543037796e-14
          -4.592206242143432e-14 3.734632542042464e-15 7.708391010713563e-14 -2.864952474544147e-14 1.6884458175497007e-14 4.68265017563545e-14
          -8.6674874390446e-14 5.168744911627884e-14 1.4341104385090012e-13 7.058863704987825e-14 -1.1647959633037744e-13 -8.907425245770512e-14
          -5.295999093090437e-14 -5.0799464799454894e-14 -1.1263855318670296e-13 -7.746617310156942e-15 8.207444619421432e-14 3.062121015008092e-14
          -3.92070965607392e-14 -35.54391864655308 -37.05486958788897 -9.949885735847885e-14 -4.5809232562187475e-14 -8.614061978882745e-14
          1.6257225501588472e-14 1.498411654746187e-14 -9.962690917850667e-14 2.478083274339296e-14 -5.5600615905487143e-14 6.342803249613941e-14
          -6.607295808669651e-14 1.0875161987750053e-13 5.834717794885439e-14 1.7692280897338776e-14 -26.381110089048573 -4.940300982189473e-14
          -5.742900767152321e-14 -1.2059347168948438e-13 -1.2953349310491959e-13 1.5159866320862077e-13 -7.440943791413684e-14 1.4635108021605137e-13
          -8.841773874883681e-14 -44.01540270754171 -1.2249856325504173e-13 -9.080075849138771e-14 -4.7326268459269974e-14 7.180589527643807e-14
          -8.414204390031121e-14 5.346638281815836e-14 4.1887417851491125e-14 -40.65927314078492 38.92083280194987 -8.091587570636816e-16
          -2.9897080176372883e-14 5.300694859496984e-14 3.267145604705548e-14 2.4921273949053312e-14 5.069829738014765e-15 6.900778555319587e-15
          -1.987927282917973e-14
        </DataArray>
        <DataArray type="Float64" Name="MassFlowRate" format="ascii" RangeMin="-6.467294645892018e-10" RangeMax="0">
          -3.700535760220507e-10 -6.361376489697808e-10 -6.467294645857963e-10 -6.467294645869084e-10 -6.467294645892018e-10 -6.355353967547172e-10
          -6.430052702063504e-10 -6.075191077004357e-10 -1.4840127192793503e-10 0 0 0
          0 0 0 0 0 -6.127165841462816e-10
          0 -6.04211002896721e-10 0 0 -5.991807615938503e-10 0
          0 0 0 0 0 0
          0 0 0 0 0 0
          0 0 0 0 0 0
          0 -6.042735563257897e-10 -6.127165841443293e-10 0 0 0
          0 0 0 0 0 0
          0 0 0 0 -5.750399574084323e-10 0
          0 0 0 0 0 0
          0 -5.216979685901435e-10 0 0 0 0
          0 0 0 -6.007620342070564e-10 -6.455403554858674e-10 0
          0 0 0 0 0 0
          0
        </DataArray>
        <DataArray type="Float64" Name="NodalForces" NumberOfComponents="2" format="ascii" RangeMin="843.2332980730002" RangeMax="9081218.436036723">
          -2380198.679629873 -4053616.100802988 -141594.54355211032 -8582597.653368466 -0.12500716862268746 -8329403.960058808
          -0.02891924767754972 -8329403.6934738215 0.11575887072831392 -8329403.843907485 198770.8232242514 -8687232.157775063
          -383148.68641194445 -8306168.298616516 608376.641479243 -9060817.079332067 -1207249.6622428559 2255854.010571597
          -352268.337076593 4455.546608047298 -342531.41426562815 3840.4624454553996 -334707.3673712561 2856.1793403316988
          -329355.3599602013 1655.44773926388 -327024.8957463907 296.753337004222 -328142.22569927864 -1456.5220511034422
          -333067.3308482398 -2941.74921056896 -342094.3743984804 -3908.906655801333 0.1796207790612243 7968465.337309258
          -13.157663508929545 2122.7372765420987 72441.27970677275 7813223.400741564 2.7250153337954544 6779.758317323489
          1.6477086255472386 -4441.121796570718 74892.79541359047 8369324.952896058 2.032964426827675 8217.085350844107
          1.933015799072507 1573.7753786887915 1.3315248850396983 3918.5532521291752 0.9913348694487922 3959.525700695114
          0.482527484302409 5912.322564437709 -3.881449611042626 1561.7451128659013 -8.315018619123293 4062.23277000949
          -1.3189089070403952 6055.204341792007 -1.3474027118936647 7517.320593522265 0.6763455258333124 7587.731308350238
          -1.1395384832721902 7758.0066920534155 16.967871320506674 1409.6301777108674 6.431086450450039 -1029.8362409012334
          25.02326191207976 6132.0065317212575 0.5726774665454286 7954.613119339541 -24.741268622154166 -947.0645009952423
          11.14887039680616 -3664.269714672708 0.33993249021295924 7760.999629836049 -2.7426846989759497 9454.673182413477
          10.887721022108053 7488.142256858817 -101699.824056785 7820843.869454674 -0.3993065084796399 7968465.111721284
          8.133033460893785 -1236.6095415612363 4.439208979019895 4507.727975936403 -4.607419582789589 4268.93848645706
          4.549484617833514 8584.266664213152 -3.374597001272603 7719.973815225443 3.1665078194637317 -1045.8751422258647
          0.2822730744956061 5937.040416550066 1.4023035599966533 7600.768486470886 0.3859904548922941 -3862.3529988975206
          2.823232279100921 7724.035922089344 0.2966811100777704 -7313.249216043259 1.3871440486982465 -8193.456848626534
          14.967968167366053 -6809.951837665445 10580.938362979417 6631834.981573678 2.3929618270194624 8153.245430080366
          -15.059901130356593 4472.288728475805 0.4273189405357698 7420.0081088292645 9.693318415782414 6938.486230898801
          -0.27842999802544555 7420.024267586035 -0.9876787167740986 7419.294265794582 20.759418917063158 -2458.8642237785098
          9.248545618669596 843.1825777273916 -416145.6255945622 7752543.377047625 6.043030392291257 5554.577211975353
          -6.994814649253385 -9252.947830990252 2.4418213499010335 -3899.4051426791993 11.043215178127866 -6933.951243091433
          -2.719273707247339 5803.767823226983 7.498583221953595 6989.545633267902 -2.692798866482917 7252.629375266348
          -99863.31380334643 8202511.405614875 367213.70109789004 -8149910.26340109 0.914581810455843 3901.649371433945
          0.3107848843501415 1572.52487728704 24.121816205210052 -10112.81401777637 2.707188172294991 -1050.3956274842203
          27.50645187619557 -10540.78414067754 14.145346198230982 -6731.269419559234 -355421.82477241574 -7484.3756146980595
          -8.848352929504472 6895.171204560436
          <InformationKey name="L2_NORM_RANGE" location="vtkDataArray" length="2">
            <Value index="0">
              843.23329807
            </Value>
            <Value index="1">
              9081218.436
            </Value>
          </InformationKey>
        </DataArray>
        <DataArray type="Float64" Name="displacement" NumberOfComponents="2" format="ascii" RangeMin="0" RangeMax="0.001">
          0 -0.001 0 -0.001 0 -0.001
          0 -0.001 0 -0.001 0 -0.001
          0 -0.001 0 -0.001 0 0
          0 0 0 0 0 0
          0 0 0 0 0 0
          0 0 0 0 0 0
          0 0 0 0 0 0
          0 0 0 0 0 0
          0 0 0 0 0 0
          0 0 0 0 0 0
          0 0 0 0 0 0
          0 0 0 0 0 0
          0 0 0 0 0 0
          0 0 0 0 0 0
          0 0 0 0 0 0
          0 0 0 0 0 0
          0 0 0 0 0 0
          0 0 0 0 0 0
          0 0 0 0 0 0
          0 0 0 0 0 0
          0 0 0 0 0 0
          0 0 0 0 0 0
          0 0 0 0 0 0
          0 0 0 0 0 0
          0 0 0 0 0 0
          0 0 0 -0.001 0 0
          0 0 0 0 0 0
          0 0 0 0 0 0
          0 0
          <InformationKey name="L2_NORM_RANGE" location="vtkDataArray" length="2">
            <Value index="0">
              0
            </Value>
            <Value index="1">
              0.001
            </Value>
          </InformationKey>
        </DataArray>
        <DataArray type="Float64" Name="epsilon" NumberOfComponents="4" format="ascii" RangeMin="0" RangeMax="0.012288188734134016">
          0 -0.011830127018926367 0 -0.0009150635094622925 0 -0.011906507681662052
          0 -0.00010465417132769501 0 -0.011547005383811764 0 -4.17907302088042e-15
          0 -0.011547005383795689 0 -4.61444926819979e-16 0 -0.011547005383779362
          0 -4.251824586236414e-15 0 -0.012055472517523196 0 0.00014675393577255028
          0 -0.011551540622638261 0 -0.00027705370537553736 0 -0.01227714505240763
          0 0.0005208567248687567 0 -0.00333333333333333 0 -0.0006100423396415282
          0 0 0 0 0 0
          0 0 0 0 0 0
          0 0 0 0 0 0
          0 0 0 0 0 0
          0 0 0 0 0 0
          0 0 0 -0.005773502691894856 0 -2.356712148683633e-15
          0 0 0 0 0 -0.00583392480589857
          0 -0.00005232708566593712 0 0 0 0
          0 0 0 0 0 -0.00600919832631416
          0 -0.00006514988480149368 0 0 0 0
          0 0 0 0 0 0
          0 0 0 0 0 0
          0 0 0 0 0 0
          0 0 0 0 0 0
          0 0 0 0 0 0
          0 0 0 0 0 0
          0 0 0 0 0 0
          0 0 0 0 0 0
          0 0 0 0 0 0
          0 0 0 0 0 0
          0 0 0 0 0 0
          0 0 0 0 0 0
          0 0 0 0 0 -0.005858231116207652
          0 0.00007337696788414914 0 -0.005773502691900789 0 -2.3203273706842564e-15
          0 0 0 0 0 0
          0 0 0 0 0 0
          0 0 0 0 0 0
          0 0 0 0 0 0
          0 0 0 0 0 0
          0 0 0 0 0 0
          0 0 0 0 0 0
          0 0 0 0 0 0
          0 0 0 0 0 -0.004943851272635734
          0 0.00010448700835423689 0 0 0 0
          0 0 0 0 0 0
          0 0 0 0 0 0
          0 0 0 0 0 0
          0 0 0 0 0 0
          0 0 0 0 0 -0.007235325463498224
          0 -0.000053511368863662755 0 0 0 0
          0 0 0 0 0 0
          0 0 0 0 0 0
          0 0 0 0 0 0
          0 0 0 0 0 0
          0 -0.005897308030766991 0 0.00007977122049953109 0 -0.011315343850800082
          0 0.00026419661232675724 0 0 0 0
          0 0 0 0 0 0
          0 0 0 0 0 0
          0 0 0 0 0 0
          0 0 0 0 0 0
          0 0 0 0
          <InformationKey name="L2_NORM_RANGE" location="vtkDataArray" length="2">
            <Value index="0">
              0
            </Value>
            <Value index="1">
              0.012288188734
            </Value>
          </InformationKey>
        </DataArray>
        <DataArray type="Float64" Name="pressure" format="ascii" RangeMin="0" RangeMax="0">
          0 0 0 0 0 0
          0 0 0 0 0 0
          0 0 0 0 0 0
          0 0 0 0 0 0
          0 0 0 0 0 0
          0 0 0 0 0 0
          0 0 0 0 0 0
          0 0 0 0 0 0
          0 0 0 0 0 0
          0 0 0 0 0 0
          0 0 0 0 0 0
          0 0 0 0 0 0
          0 0 0 0 0 0
          0 0 0 0 0 0
          0
        </DataArray>
        <DataArray type="Float64" Name="pressure_interpolated" format="ascii" RangeMin="0" RangeMax="0">
          0 0 0 0 0 0
          0 0 0 0 0 0
          0 0 0 0 0 0
          0 0 0 0 0 0
          0 0 0 0 0 0
          0 0 0 0 0 0
          0 0 0 0 0 0
          0 0 0 0 0 0
          0 0 0 0 0 0
          0 0 0 0 0 0
          0 0 0 0 0 0
          0 0 0 0 0 0
          0 0 0 0 0 0
          0 0 0 0 0 0
          0
        </DataArray>
        <DataArray type="Float64" Name="sigma" NumberOfComponents="4" format="ascii" RangeMin="5655548.234907244" RangeMax="108681332.28333504">
          -41625366.40074912 -87125854.93508132 -41625366.40074913 -3519475.0363934324 -41845695.2355636 -87639955.54964843
          -41845695.23556361 -402516.0435680577 -40808669.37638008 -85220228.54488687 -40808669.37638008 -0.000016073351335323
          -40808669.37633371 -85220228.54477866 -40808669.37633371 -0.0000017747852668177994 -40808669.37628662 -85220228.54466875
          -40808669.37628662 -0.000016353179587466315 -42275401.49285537 -88642603.48332919 -42275401.49285537 564438.2145098088
          -40821751.796071894 -85250754.19083443 -40821751.7960719 -1065591.1745212974 -42914841.49732969 -90134630.16043596
          -42914841.49732969 2003295.0956490643 -13247384.053793164 -26067896.874305967 -13247384.053793168 -2346316.690928954
          -3520776.542871347 -3520776.5428713486 -3520776.5428713467 4.8018870373739937e-11 -3422509.3270120616 -3422509.327012062
          -3422509.327012064 1.714959656204998e-11 -3343430.702550323 -3343430.702550323 -3343430.702550322 1.2004717593434984e-11
          -3289168.478747714 -3289168.4787477124 -3289168.478747712 -1.2004717593434989e-11 -3265232.2958386107 -3265232.295838611
          -3265232.2958386093 -1.2004717593434986e-11 -3275846.3596306145 -3275846.359630616 -3275846.359630616 -1.0289757937229987e-11
          -3324704.030153533 -3324704.0301535353 -3324704.0301535353 6.859838624819991e-12 -3414667.6882802355 -3414667.6882802397
          -3414667.6882802397 3.4299193124099952e-12 -20301950.46632885 -42507730.050539844 -20301950.466328852 -0.000009064267110444989
          -3273804.0300947223 -3273804.030094719 -3273804.0300947204 -8.574798281024989e-12 -20476255.689836938 -42914428.02021605
          -20476255.689836934 -201258.02179206585 -3380260.939025372 -3380260.939025367 -3380260.93902537 4.8876350201842445e-11
          -3299577.6499562133 -3299577.6499562096 -3299577.6499562114 1.0718497851281238e-11 -20990092.468414783 -44102393.72346925
          -20990092.468414787 -250576.48000574493 -3574566.839769285 -3574566.839769289 -3574566.839769287 4.458895106132995e-11
          -3269484.239723416 -3269484.2397234202 -3269484.2397234202 3.483511801666402e-12 -3297588.807512045 -3297588.807512045
          -3297588.807512045 1.2011416654592038e-11 -3297666.7914600414 -3297666.7914600396 -3297666.7914600405 -2.915431415548496e-11
          -3347525.796470069 -3347525.7964700703 -3347525.7964700707 -1.7350568396761535e-12 -3269484.4590175264 -3269484.459017525
          -3269484.4590175264 -3.258423346789497e-11 -3296235.426466645 -3296235.4264666475 -3296235.426466645 -7.545822487301992e-11
          -3347199.8076435737 -3347199.8076435775 -3347199.807643576 -3.7729112436509956e-11 -3415920.587200189 -3415920.5872001895
          -3415920.5872001867 4.1159031748919956e-11 -3416004.6746166726 -3416004.674616669 -3416004.6746166702 1.7196489990149335e-11
          -3499218.7392132594 -3499218.739213262 -3499218.7392132604 1.7196489990149338e-11 -3268926.4394559455 -3268926.4394559427
          -3268926.4394559427 -4.1159031748919956e-11 -3266386.028724781 -3266386.0287247803 -3266386.0287247784 -1.7149596562049984e-11
          -3343970.8150755675 -3343970.815075567 -3343970.8150755665 -8.91779021226599e-11 -3416073.8301494163 -3416073.830149414
          -3416073.8301494145 1.3719677249639981e-11 -3266891.577186112 -3266891.577186113 -3266891.5771861114 -6.85983862481999e-12
          -3289622.789107591 -3289622.789107591 -3289622.789107591 -8.574798281024989e-12 -3499213.849963423 -3499213.849963425
          -3499213.8499634247 -1.3672783821540626e-11 -3418036.579372622 -3418036.5793726235 -3418036.579372625 -3.527917007050282e-11
          -3498311.443245985 -3498311.4432459814 -3498311.4432459828 -4.8018870373739956e-11 -20546367.403040607 -43078025.54230079
          -20546367.403040603 282219.10724672745 -20301952.46988517 -42507732.05411897 -20301952.46988517 -0.000008924337549736424
          -3265743.365941852 -3265743.3659418495 -3265743.3659418514 1.39646714862407e-11 -3313220.023504991 -3313220.0235049906
          -3313220.0235049906 1.7149596562049978e-11 -3293305.0839317786 -3293305.0839317814 -3293305.0839317786 -5.879861678417135e-11
          -3468745.9863718897 -3468745.9863718916 -3468745.9863718897 2.5724394843074968e-11 -3499253.713916829 -3499253.7139168284
          -3499253.7139168284 4.458895106132995e-11 -3266257.389369422 -3266257.389369417 -3266257.3893694202 1.1147237765332484e-11
          -3347523.01072533 -3347523.01072533 -3347523.0107253306 -2.0097183471149252e-14 -3415933.75260965 -3415933.7526096464
          -3415933.752609648 -1.7149596562049978e-11 -3290393.5866052792 -3290393.5866052792 -3290393.5866052792 1.3719677249639983e-11
          -3499225.4024498225 -3499225.402449826 -3499225.4024498253 -6.8598386248200026e-12 -3344432.2601836375 -3344432.2601836403
          -3344432.260183641 8.574798281024989e-12 -3337508.509639572 -3337508.509639572 -3337508.509639572 -2.2049481294064254e-12
          -3365879.954119278 -3365879.954119276 -3365879.954119276 5.573618882666242e-12 -17900119.5698306 -36914932.15689111
          -17900119.569830593 401873.1090547574 -3520618.6481142393 -3520618.6481142403 -3520618.6481142393 -4.801887037373994e-11
          -3344332.0933156004 -3344332.093315598 -3344332.0933155995 -7.408625714805591e-11 -3571151.489694324 -3571151.4896943267
          -3571151.4896943257 -1.8864556218254984e-11 -3571158.54801363 -3571158.548013628 -3571158.548013627 -6.859838624819992e-11
          -3571149.197157973 -3571149.19715797 -3571149.1971579716 -1.1977921348806781e-11 -3571160.512679136 -3571160.512679132
          -3571160.512679134 2.0579515874459984e-11 -3287148.5097006485 -3287148.5097006545 -3287148.509700652 1.6978100596429476e-11
          -3267774.552354439 -3267774.552354442 -3267774.5523544415 8.231806349783989e-12 -24534499.871671602 -52362674.731280155
          -24534499.871671595 -205812.95716793387 -3575674.711607204 -3575674.7116072043 -3575674.711607203 -7.40862571480559e-11
          -3432051.057767872 -3432051.0577678736 -3432051.0577678755 -1.6720856647998733e-11 -3290444.357704529 -3290444.357704531
          -3290444.357704531 4.336804716545745e-12 -3344358.738977536 -3344358.738977533 -3344358.7389775333 1.0289757937229989e-11
          -3347139.41335915 -3347139.41335915 -3347139.413359149 -3.4299193124099936e-12 -3499355.0462181256 -3499355.046218132
          -3499355.0462181293 -4.8018870373739956e-11 -3416208.861295909 -3416208.8612959087 -3416208.8612959106 -6.859838624819991e-12
          -20665049.54287968 -43347003.5073681 -20665049.54287967 306812.38653665787 -40140414.954231 -83660968.226539
          -40140414.95423102 1016140.8166413737 -3297425.8761360277 -3297425.8761360296 -3297425.876136029 0
          -3269399.128186041 -3269399.1281860373 -3269399.128186038 5.359248925640403e-14 -3429476.3824984897 -3429476.382498493
          -3429476.382498493 3.4299193124099956e-12 -3266208.7659946405 -3266208.7659946433 -3266208.7659946415 2.6059347900927515e-12
          -3429799.386235248 -3429799.3862352446 -3429799.386235245 -1.7149596562049978e-11 -3447081.7654608614 -3447081.765460857
          -3447081.765460857 -2.0579515874459972e-12 -3547096.161516329 -3547096.161516328 -3547096.161516329 3.714977370689767e-12
          -3571171.6124412455 -3571171.6124412455 -3571171.612441245 1.371967724963998e-11
          <InformationKey name="L2_NORM_RANGE" location="vtkDataArray" length="2">
            <Value index="0">
              5655548.2349
            </Value>
            <Value index="1">
              108681332.28
            </Value>
          </InformationKey>
        </DataArray>
        <DataArray type="Float64" Name="temperature" format="ascii" RangeMin="273.15" RangeMax="293.15">
          293.15 293.15 293.15 293.15 293.15 293.15
          293.15 293.15 273.15 273.15 273.15 273.15
          273.15 273.15 273.15 273.15 273.15 273.15
          273.15 273.15 273.15 273.15 273.15 273.15
          273.15 273.15 273.15 273.15 273.15 273.15
          273.15 273.15 273.15 273.15 273.15 273.15
          273.15 273.15 273.15 273.15 273.15 273.15
          273.15 273.15 273.15 273.15 273.15 273.15
          273.15 273.15 273.15 273.15 273.15 273.15
          273.15 273.15 273.15 273.15 273.15 273.15
          273.15 273.15 273.15 273.15 273.15 273.15
          273.15 273.15 273.15 273.15 273.15 273.15
          273.15 273.15 273.15 273.15 293.15 273.15
          273.15 273.15 273.15 273.15 273.15 273.15
          273.15
        </DataArray>