<?xml version="1.0"?>
<VTKFile type="UnstructuredGrid" version="1.0" byte_order="LittleEndian" header_type="UInt64">
  <UnstructuredGrid>
    <FieldData>
      <DataArray type="Int8" Name="IntegrationPointMetaData" NumberOfTuples="166" format="ascii" RangeMin="34" RangeMax="125">
        123 34 105 110 116 101
        103 114 97 116 105 111
        110 95 112 111 105 110
        116 95 97 114 114 97
        121 115 34 58 91 123
        34 105 110 116 101 103
        114 97 116 105 111 110
        95 111 114 100 101 114
        34 58 51 44 34 110
        97 109 101 34 58 34
        115 105 103 109 97 95
        105 112 34 44 34 110
        117 109 98 101 114 95
        111 102 95 99 111 109
        112 111 110 101 110 116
        115 34 58 52 125 44
        123 34 105 110 116 101
        103 114 97 116 105 111
        110 95 111 114 100 101
        114 34 58 51 44 34
        110 97 109 101 34 58
        34 101 112 115 105 108
        111 110 95 105 112 34
        44 34 110 117 109 98
        101 114 95 111 102 95
        99 111 109 112 111 110
        101 110 116 115 34 58
        52 125 93 125
      </DataArray>
      <DataArray type="Int8" Name="OGS_VERSION" NumberOfTuples="22" format="ascii" RangeMin="45" RangeMax="103">
        54 46 52 46 50 45
        49 49 56 49 45 103
        51 101 51 50 57 57
        57 48 98 48
      </DataArray>
      <DataArray type="Float64" Name="epsilon_ip" NumberOfComponents="4" NumberOfTuples="682" format="ascii" RangeMin="0" RangeMax="0">
        0 0 0 0 0 0
        0 0 0 0 0 0
        0 0 0 0 0 0
        0 0 0 0 0 0
        0 0 0 0 0 0
        0 0 0 0 0 0
        0 0 0 0 0 0
        0 0 0 0 0 0
        0 0 0 0 0 0
        0 0 0 0 0 0
        0 0 0 0 0 0
        0 0 0 0 0 0
        0 0 0 0 0 0
        0 0 0 0 0 0
        0 0 0 0 0 0
        0 0 0 0 0 0
        0 0 0 0 0 0
        0 0 0 0 0 0
        0 0 0 0 0 0
        0 0 0 0 0 0
        0 0 0 0 0 0
        0 0 0 0 0 0
        0 0 0 0 0 0
        0 0 0 0 0 0
        0 0 0 0 0 0
        0 0 0 0 0 0
        0 0 0 0 0 0
        0 0 0 0 0 0
        0 0 0 0 0 0
        0 0 0 0 0 0
        0 0 0 0 0 0
        0 0 0 0 0 0
        0 0 0 0 0 0
        0 0 0 0 0 0
        0 0 0 0 0 0
        0 0 0 0 0 0
        0 0 0 0 0 0
        0 0 0 0 0 0
        0 0 0 0 0 0
        0 0 0 0 0 0
        0 0 0 0 0 0
        0 0 0 0 0 0
        0 0 0 0 0 0
        0 0 0 0 0 0
        0 0 0 0 0 0
        0 0 0 0 0 0
        0 0 0 0 0 0
        0 0 0 0 0 0
        0 0 0 0 0 0
        0 0 0 0 0 0
        0 0 0 0 0 0
        0 0 0 0 0 0
        0 0 0 0 0 0
        0 0 0 0 0 0
        0 0 0 0 0 0
        0 0 0 0 0 0
        0 0 0 0 0 0
        0 0 0 0 0 0
        0 0 0 0 0 0
        0 0 0 0 0 0
        0 0 0 0 0 0
        0 0 0 0 0 0
        0 0 0 0 0 0
        0 0 0 0 0 0
        0 0 0 0 0 0
        0 0 0 0 0 0
        0 0 0 0 0 0
        0 0 0 0 0 0
        0 0 0 0 0 0
        0 0 0 0 0 0
        0 0 0 0 0 0
        0 0 0 0 0 0
        0 0 0 0 0 0
        0 0 0 0 0 0
        0 0 0 0 0 0
        0 0 0 0 0 0
        0 0 0 0 0 0
        0 0 0 0 0 0
        0 0 0 0 0 0
        0 0 0 0 0 0
        0 0 0 0 0 0
        0 0 0 0 0 0
        0 0 0 0 0 0
        0 0 0 0 0 0
        0 0 0 0 0 0
        0 0 0 0 0 0
        0 0 0 0 0 0
        0 0 0 0 0 0
        0 0 0 0 0 0
        0 0 0 0 0 0
        0 0 0 0 0 0
        0 0 0 0 0 0
        0 0 0 0 0 0
        0 0 0 0 0 0
        0 0 0 0 0 0
        0 0 0 0 0 0
        0 0 0 0 0 0
        0 0 0 0 0 0
        0 0 0 0 0 0
        0 0 0 0 0 0
        0 0 0 0 0 0
        0 0 0 0 0 0
        0 0 0 0 0 0
        0 0 0 0 0 0
        0 0 0 0 0 0
        0 0 0 0 0 0
        0 0 0 0 0 0
        0 0 0 0 0 0
        0 0 0 0 0 0
        0 0 0 0 0 0
        0 0 0 0 0 0
        0 0 0 0 0 0
        0 0 0 0 0 0
        0 0 0 0 0 0
        0 0 0 0 0 0
        0 0 0 0 0 0
        0 0 0 0 0 0
        0 0 0 0 0 0
        0 0 0 0 0 0
        0 0 0 0 0 0
        0 0 0 0 0 0
        0 0 0 0 0 0
        0 0 0 0 0 0
        0 0 0 0 0 0
        0 0 0 0 0 0
        0 0 0 0 0 0
        0 0 0 0 0 0
        0 0 0 0 0 0
        0 0 0 0 0 0
        0 0 0 0 0 0
        0 0 0 0 0 0
        0 0 0 0 0 0
        0 0 0 0 0 0
        0 0 0 0 0 0
        0 0 0 0 0 0
        0 0 0 0 0 0
        0 0 0 0 0 0
        0 0 0 0 0 0
        0 0 0 0 0 0
        0 0 0 0 0 0
        0 0 0 0 0 0
        0 0 0 0 0 0
        0 0 0 0 0 0
        0 0 0 0 0 0
        0 0 0 0 0 0
        0 0 0 0 0 0
        0 0 0 0 0 0
        0 0 0 0 0 0
        0 0 0 0 0 0
        0 0 0 0 0 0
        0 0 0 0 0 0
        0 0 0 0 0 0
        0 0 0 0 0 0
        0 0 0 0 0 0
        0 0 0 0 0 0
        0 0 0 0 0 0
        0 0 0 0 0 0
        0 0 0 0 0 0
        0 0 0 0 0 0
        0 0 0 0 0 0
        0 0 0 0 0 0
        0 0 0 0 0 0
        0 0 0 0 0 0
        0 0 0 0 0 0
        0 0 0 0 0 0
        0 0 0 0 0 0
        0 0 0 0 0 0
        0 0 0 0 0 0
        0 0 0 0 0 0
        0 0 0 0 0 0
        0 0 0 0 0 0
        0 0 0 0 0 0
        0 0 0 0 0 0
        0 0 0 0 0 0
        0 0 0 0 0 0
        0 0 0 0 0 0
        0 0 0 0 0 0
        0 0 0 0 0 0
        0 0 0 0 0 0
        0 0 0 0 0 0
        0 0 0 0 0 0
        0 0 0 0 0 0
        0 0 0 0 0 0
        0 0 0 0 0 0
        0 0 0 0 0 0
        0 0 0 0 0 0
        0 0 0 0 0 0
        0 0 0 0 0 0
        0 0 0 0 0 0
        0 0 0 0 0 0
        0 0 0 0 0 0
        0 0 0 0 0 0
        0 0 0 0 0 0
        0 0 0 0 0 0
        0 0 0 0 0 0
        0 0 0 0 0 0
        0 0 0 0 0 0
        0 0 0 0 0 0
        0 0 0 0 0 0
        0 0 0 0 0 0
        0 0 0 0 0 0
        0 0 0 0 0 0
        0 0 0 0 0 0
        0 0 0 0 0 0
        0 0 0 0 0 0
        0 0 0 0 0 0
        0 0 0 0 0 0
        0 0 0 0 0 0
        0 0 0 0 0 0
        0 0 0 0 0 0
        0 0 0 0 0 0
        0 0 0 0 0 0
        0 0 0 0 0 0
        0 0 0 0 0 0
        0 0 0 0 0 0
        0 0 0 0 0 0
        0 0 0 0 0 0
        0 0 0 0 0 0
        0 0 0 0 0 0
        0 0 0 0 0 0
        0 0 0 0 0 0
        0 0 0 0 0 0
        0 0 0 0 0 0
        0 0 0 0 0 0
        0 0 0 0 0 0
        0 0 0 0 0 0
        0 0 0 0 0 0
        0 0 0 0 0 0
        0 0 0 0 0 0
        0 0 0 0 0 0
        0 0 0 0 0 0
        0 0 0 0 0 0
        0 0 0 0 0 0
        0 0 0 0 0 0
        0 0 0 0 0 0
        0 0 0 0 0 0
        0 0 0 0 0 0
        0 0 0 0 0 0
        0 0 0 0 0 0
        0 0 0 0 0 0
        0 0 0 0 0 0
        0 0 0 0 0 0
        0 0 0 0 0 0
        0 0 0 0 0 0
        0 0 0 0 0 0
        0 0 0 0 0 0
        0 0 0 0 0 0
        0 0 0 0 0 0
        0 0 0 0 0 0
        0 0 0 0 0 0
        0 0 0 0 0 0
        0 0 0 0 0 0
        0 0 0 0 0 0
        0 0 0 0 0 0
        0 0 0 0 0 0
        0 0 0 0 0 0
        0 0 0 0 0 0
        0 0 0 0 0 0
        0 0 0 0 0 0
        0 0 0 0 0 0
        0 0 0 0 0 0
        0 0 0 0 0 0
        0 0 0 0 0 0
        0 0 0 0 0 0
        0 0 0 0 0 0
        0 0 0 0 0 0
        0 0 0 0 0 0
        0 0 0 0 0 0
        0 0 0 0 0 0
        0 0 0 0 0 0
        0 0 0 0 0 0
        0 0 0 0 0 0
        0 0 0 0 0 0
        0 0 0 0 0 0
        0 0 0 0 0 0
        0 0 0 0 0 0
        0 0 0 0 0 0
        0 0 0 0 0 0
        0 0 0 0 0 0
        0 0 0 0 0 0
        0 0 0 0 0 0
        0 0 0 0 0 0
        0 0 0 0 0 0
        0 0 0 0 0 0
        0 0 0 0 0 0
        0 0 0 0 0 0
        0 0 0 0 0 0
        0 0 0 0 0 0
        0 0 0 0 0 0
        0 0 0 0 0 0
        0 0 0 0 0 0
        0 0 0 0 0 0
        0 0 0 0 0 0
        0 0 0 0 0 0
        0 0 0 0 0 0
        0 0 0 0 0 0
        0 0 0 0 0 0
        0 0 0 0 0 0
        0 0 0 0 0 0
        0 0 0 0 0 0
        0 0 0 0 0 0
        0 0 0 0 0 0
        0 0 0 0 0 0
        0 0 0 0 0 0
        0 0 0 0 0 0
        0 0 0 0 0 0
        0 0 0 0 0 0
        0 0 0 0 0 0
        0 0 0 0 0 0
        0 0 0 0 0 0
        0 0 0 0 0 0
        0 0 0 0 0 0
        0 0 0 0 0 0
        0 0 0 0 0 0
        0 0 0 0 0 0
        0 0 0 0 0 0
        0 0 0 0 0 0
        0 0 0 0 0 0
        0 0 0 0 0 0
        0 0 0 0 0 0
        0 0 0 0 0 0
        0 0 0 0 0 0
        0 0 0 0 0 0
        0 0 0 0 0 0
        0 0 0 0 0 0
        0 0 0 0 0 0
        0 0 0 0 0 0
        0 0 0 0 0 0
        0 0 0 0 0 0
        0 0 0 0 0 0
        0 0 0 0 0 0
        0 0 0 0 0 0
        0 0 0 0 0 0
        0 0 0 0 0 0
        0 0 0 0 0 0
        0 0 0 0 0 0
        0 0 0 0 0 0
        0 0 0 0 0 0
        0 0 0 0 0 0
        0 0 0 0 0 0
        0 0 0 0 0 0
        0 0 0 0 0 0
        0 0 0 0 0 0
        0 0 0 0 0 0
        0 0 0 0 0 0
        0 0 0 0 0 0
        0 0 0 0 0 0
        0 0 0 0 0 0
        0 0 0 0 0 0
        0 0 0 0 0 0
        0 0 0 0 0 0
        0 0 0 0 0 0
        0 0 0 0 0 0
        0 0 0 0 0 0
        0 0 0 0 0 0
        0 0 0 0 0 0
        0 0 0 0 0 0
        0 0 0 0 0 0
        0 0 0 0 0 0
        0 0 0 0 0 0
        0 0 0 0 0 0
        0 0 0 0 0 0
        0 0 0 0 0 0
        0 0 0 0 0 0
        0 0 0 0 0 0
        0 0 0 0 0 0
        0 0 0 0 0 0
        0 0 0 0 0 0
        0 0 0 0 0 0
        0 0 0 0 0 0
        0 0 0 0 0 0
        0 0 0 0 0 0
        0 0 0 0 0 0
        0 0 0 0 0 0
        0 0 0 0 0 0
        0 0 0 0 0 0
        0 0 0 0 0 0
        0 0 0 0 0 0
        0 0 0 0 0 0
        0 0 0 0 0 0
        0 0 0 0 0 0
        0 0 0 0 0 0
        0 0 0 0 0 0
        0 0 0 0 0 0
        0 0 0 0 0 0
        0 0 0 0 0 0
        0 0 0 0 0 0
        0 0 0 0 0 0
        0 0 0 0 0 0
        0 0 0 0 0 0
        0 0 0 0 0 0
        0 0 0 0 0 0
        0 0 0 0 0 0
        0 0 0 0 0 0
        0 0 0 0 0 0
        0 0 0 0 0 0
        0 0 0 0 0 0
        0 0 0 0 0 0
        0 0 0 0 0 0
        0 0 0 0 0 0
        0 0 0 0 0 0
        0 0 0 0 0 0
        0 0 0 0 0 0
        0 0 0 0 0 0
        0 0 0 0 0 0
        0 0 0 0 0 0
        0 0 0 0 0 0
        0 0 0 0 0 0
        0 0 0 0 0 0
        0 0 0 0 0 0
        0 0 0 0 0 0
        0 0 0 0 0 0
        0 0 0 0 0 0
        0 0 0 0 0 0
        0 0 0 0 0 0
        0 0 0 0 0 0
        0 0 0 0 0 0
        0 0 0 0 0 0
        0 0 0 0 0 0
        0 0 0 0 0 0
        0 0 0 0 0 0
        0 0 0 0 0 0
        0 0 0 0 0 0
        0 0 0 0 0 0
        0 0 0 0 0 0
[...]
      <PointData>
        <DataArray type="Float64" Name="HeatFlowRate" format="ascii" RangeMin="-1.4210854715202004e-13" RangeMax="1.7053025658242404e-13">
          6.900778555319587e-15 2.842170943040401e-14 -5.684341886080802e-14 8.526512829121202e-14 1.1368683772161603e-13 2.842170943040401e-14
          2.842170943040401e-14 -3.901398787252282e-14 -6.425751497230603e-14 -3.527702008951056e-14 2.027122260616761e-14 4.353845011786816e-14
          3.450999514882636e-14 2.842170943040401e-14 0 5.684341886080802e-14 1.1368683772161603e-13 8.526512829121202e-14
          5.684341886080802e-14 -1.4210854715202004e-13 -1.4210854715202004e-13 1.4210854715202004e-13 0 -1.1368683772161603e-13
          1.4210854715202004e-13 -8.526512829121202e-14 1.7053025658242404e-13 8.526512829121202e-14 2.842170943040401e-14 -2.842170943040401e-14
          2.842170943040401e-14 1.4210854715202004e-13 1.1368683772161603e-13 -5.684341886080802e-14 0 0
          5.684341886080802e-14 -2.842170943040401e-14 -1.1368683772161603e-13 -1.4210854715202004e-13 5.684341886080802e-14 5.684341886080802e-14
          -2.842170943040401e-14 8.526512829121202e-14 0 -8.526512829121202e-14 -5.684341886080802e-14 -1.4210854715202004e-13
          0 -2.842170943040401e-14 -2.842170943040401e-14 -1.4210854715202004e-13 1.1368683772161603e-13 -5.684341886080802e-14
          8.526512829121202e-14 5.684341886080802e-14 2.842170943040401e-14 -2.842170943040401e-14 5.684341886080802e-14 5.684341886080802e-14
          -2.842170943040401e-14 -1.4210854715202004e-13 2.842170943040401e-14 5.684341886080802e-14 8.526512829121202e-14 1.1368683772161603e-13
          5.300694859496984e-14 -9.080075849138771e-14 2.4921273949053312e-14 5.069829738014765e-15 1.7692280897338776e-14 5.834717794885439e-14
          1.004455010569983e-13 1.1681436922598704e-14 3.672521558853641e-14 3.686117019591354e-14 7.180589527643807e-14 1.0875161987750053e-13
          5.010584759222143e-15 0 5.684341886080802e-14 2.842170943040401e-14 -1.4210854715202004e-13 0
          -8.526512829121202e-14 1.4210854715202004e-13 2.842170943040401e-14 -1.1368683772161603e-13 8.526512829121202e-14 -2.842170943040401e-14
          8.526512829121202e-14 5.684341886080802e-14 -6.670183734767576e-14 -2.842170943040401e-14 -5.684341886080802e-14 -2.842170943040401e-14
        </DataArray>
        <DataArray type="Float64" Name="MassFlowRate" format="ascii" RangeMin="0" RangeMax="0">
          0 0 0 0 0 0
          0 0 0 0 0 0
          0 0 0 0 0 0
          0 0 0 0 0 0
          0 0 0 0 0 0
          0 0 0 0 0 0
          0 0 0 0 0 0
          0 0 0 0 0 0
          0 0 0 0 0 0
          0 0 0 0 0 0
          0 0 0 0 0 0
          0 0 0 0 0 0
          0 0 0 0 0 0
          0 0 0 0 0 0
          0 0 0 0 0 0
          0 0 0 0 0 0
        </DataArray>
        <DataArray type="Float64" Name="NodalForces" NumberOfComponents="2" format="ascii" RangeMin="6731.284282327732" RangeMax="562311.452900087">
          -355421.82477241574 -7484.3756146980595 -522257.3575187619 -17687.614897517196 -485195.1781712395 -16291.94062942639
          -451361.83071903157 -15837.452204198198 -421179.43901684403 -19211.522110719903 -395073.6404291149 -9582.394777003065
          -373111.3184523465 -8872.143024110846 -3.991930779913673 -12866.085203888622 44.446648776734946 -13208.805718622316
          40.37680098871351 -12610.234203735628 7.201395974103717 -15327.744519302389 -20.506775264802855 -12771.661272772966
          -1.562063129269518 -13413.540888869582 395015.15717410366 -10914.68272719765 421229.6806306603 -12850.718190599466
          451420.87597086374 -14986.113923346245 -9.147527139779413 -14923.082663329784 -5.4902902940812055 -28996.88827593741
          -123.58802311477484 -9257.421607612312 7.571751504234271 -29150.213636443077 4.401002293918282 -36269.57102895534
          34.38732905712095 -12183.757979842514 -4.348015305004083 -17200.119390124048 4.073701755696675 -21257.01250770403
          56.90481852271478 -15632.287677007582 -22.33557362612919 -17051.290437362302 24.12678537715692 -21503.88950003183
          18.88079556261073 -23039.29143051291 14.398523475363618 -26984.475915578398 -27.111234122596215 -24280.12844340605
          -17.62479816545965 -27204.0071756939 -4.701166588580236 -28710.192936769745 -9.737127003754722 -26259.9982508221
          -5.948686399875442 -25242.919208171283 67.74243355856743 -16298.34958265361 57.85861876783747 -34588.329452475125
          -56.11497117392719 -37730.030760631664 82.2448773245851 -31905.031275408808 -73.25757411550148 -15235.217173753568
          -88.48445562217967 -26394.44860048753 -85.65353666807641 -22634.59012839262 -21.246260881627677 -24257.856398666045
          -61.68359411336132 -26763.995742278 8.476921921537723 -21211.59972469177 5.919354299578117 -20947.719868939486
          12.48780761731905 -25155.440009156155 8.945989525585901 -24823.3648997969 4.97393966303207 -28627.015423161385
          12.236693218612345 -28949.963213125506 -23.549055568117183 -26379.916680673137 -14.640891396004008 -31307.950192989374
          -12.703658355545485 -28536.64905003723 130.15712725139747 -9476.21611936175 89.43274012790062 -16820.394882868615
          38.53348920310964 -14164.338519013138 14.763853102340363 -39443.49657296791 -4.63541985489428 -21555.10355971995
          -19.15233337553218 -17332.40286360032 30.858623962121783 -25185.32987607055 0.9334354273451027 -28163.260547279147
          15.467157589970157 -16187.858083893487 -18.653505835914984 -34624.215602397424 1.558050974010257 -24977.264265559614
          -53.88464764630771 -19260.952600098244 2.616529667197028 -23038.686233395623 17.341328195179813 -16452.573458322673
          24.121816205210052 -10112.81401777637 -6.994814649253385 -9252.947830990252 27.50645187619557 -10540.78414067754
          14.145346198230982 -6731.269419559234 14.967968167366053 -6809.951837665445 1.3871440486982465 -8193.456848626534
          4.539567814703332 -10134.64045730859 2.4278616296932056 -10101.66069094857 -14.64158866656362 -10120.14950617979
          -5.343971194903133 -13521.028530120006 11.043215178127866 -6933.951243091433 0.2966811100777704 -7313.249216043259
          -342094.3743984804 -3908.906655801333 -2.5754339098057244 -40432.86166652234 8.513277701626066 -50915.78452113317
          -10.495176213560626 -30166.860887340183 -8.059472478373209 -31708.115240078245 -16.64525720232632 -30452.799661358993
          -6.020132572972216 -31251.697977119766 -561990.8534509675 -18985.5392354285 -5.014166140696034 -33074.84696910338
          28.112231522391085 -31602.406702907552 -10.009886145533528 -52677.774466142146 10.615796611295082 -40724.01968511136
          -6.834443083003862 -17181.89127028195 1.103375612059608 -33637.42659671762 -3.677059732028283 -13501.199300300592
          485248.1466652547 -18187.54264949786 -1.8592441742075607 -17756.058945921715 373022.87032439373 -9248.873118533666
          <InformationKey name="L2_NORM_RANGE" location="vtkDataArray" length="2">
            <Value index="0">
              6731.2842823
            </Value>
            <Value index="1">
              562311.4529
            </Value>
          </InformationKey>
        </DataArray>
        <DataArray type="Float64" Name="displacement" NumberOfComponents="2" format="ascii" RangeMin="0" RangeMax="0">
          0 0 0 0 0 0
          0 0 0 0 0 0
          0 0 0 0 0 0
          0 0 0 0 0 0
          0 0 0 0 0 0
          0 0 0 0 0 0
          0 0 0 0 0 0
          0 0 0 0 0 0
          0 0 0 0 0 0
          0 0 0 0 0 0
          0 0 0 0 0 0
          0 0 0 0 0 0
          0 0 0 0 0 0
          0 0 0 0 0 0
          0 0 0 0 0 0
          0 0 0 0 0 0
          0 0 0 0 0 0
          0 0 0 0 0 0
          0 0 0 0 0 0
          0 0 0 0 0 0
          0 0 0 0 0 0
          0 0 0 0 0 0
          0 0 0 0 0 0
          0 0 0 0 0 0
          0 0 0 0 0 0
          0 0 0 0 0 0
          0 0 0 0 0 0
          0 0 0 0 0 0
          0 0 0 0 0 0
          0 0 0 0 0 0
          0 0 0 0 0 0
          0 0 0 0 0 0
          <InformationKey name="L2_NORM_RANGE" location="vtkDataArray" length="2">
            <Value index="0">
              0
            </Value>
            <Value index="1">
              0
            </Value>
          </InformationKey>
        </DataArray>
        <DataArray type="Float64" Name="epsilon" NumberOfComponents="4" format="ascii" RangeMin="0" RangeMax="0">
          0 0 0 0 0 0
          0 0 0 0 0 0
          0 0 0 0 0 0
          0 0 0 0 0 0
          0 0 0 0 0 0
          0 0 0 0 0 0
          0 0 0 0 0 0
          0 0 0 0 0 0
          0 0 0 0 0 0
          0 0 0 0 0 0
          0 0 0 0 0 0
          0 0 0 0 0 0
          0 0 0 0 0 0
          0 0 0 0 0 0
          0 0 0 0 0 0
          0 0 0 0 0 0
          0 0 0 0 0 0
          0 0 0 0 0 0
          0 0 0 0 0 0
          0 0 0 0 0 0
          0 0 0 0 0 0
          0 0 0 0 0 0
          0 0 0 0 0 0
          0 0 0 0 0 0
          0 0 0 0 0 0
          0 0 0 0 0 0
          0 0 0 0 0 0
          0 0 0 0 0 0
          0 0 0 0 0 0
          0 0 0 0 0 0
          0 0 0 0 0 0
          0 0 0 0 0 0
          0 0 0 0 0 0
          0 0 0 0 0 0
          0 0 0 0 0 0
          0 0 0 0 0 0
          0 0 0 0 0 0
          0 0 0 0 0 0
          0 0 0 0 0 0
          0 0 0 0 0 0
          0 0 0 0 0 0
          0 0 0 0 0 0
          0 0 0 0 0 0
          0 0 0 0 0 0
          0 0 0 0 0 0
          0 0 0 0 0 0
          0 0 0 0 0 0
          0 0 0 0 0 0
          0 0 0 0 0 0
          0 0 0 0 0 0
          0 0 0 0 0 0
          0 0 0 0 0 0
          0 0 0 0 0 0
          0 0 0 0 0 0
          0 0 0 0 0 0
          0 0 0 0 0 0
          0 0 0 0 0 0
          0 0 0 0 0 0
          0 0 0 0 0 0
          0 0 0 0 0 0
          0 0 0 0 0 0
          0 0 0 0 0 0
          0 0 0 0 0 0
          0 0 0 0 0 0
          <InformationKey name="L2_NORM_RANGE" location="vtkDataArray" length="2">
            <Value index="0">
              0
            </Value>
            <Value index="1">
              0
            </Value>
          </InformationKey>
        </DataArray>
        <DataArray type="Float64" Name="pressure" format="ascii" RangeMin="0" RangeMax="0">
          0 0 0 0 0 0
          0 0 0 0 0 0
          0 0 0 0 0 0
          0 0 0 0 0 0
          0 0 0 0 0 0
          0 0 0 0 0 0
          0 0 0 0 0 0
          0 0 0 0 0 0
          0 0 0 0 0 0
          0 0 0 0 0 0
          0 0 0 0 0 0
          0 0 0 0 0 0
          0 0 0 0 0 0
          0 0 0 0 0 0
          0 0 0 0 0 0
          0 0 0 0 0 0
        </DataArray>
        <DataArray type="Float64" Name="pressure_interpolated" format="ascii" RangeMin="0" RangeMax="0">
          0 0 0 0 0 0
          0 0 0 0 0 0
          0 0 0 0 0 0
          0 0 0 0 0 0
          0 0 0 0 0 0
          0 0 0 0 0 0
          0 0 0 0 0 0
          0 0 0 0 0 0
          0 0 0 0 0 0
          0 0 0 0 0 0
          0 0 0 0 0 0
          0 0 0 0 0 0
          0 0 0 0 0 0
          0 0 0 0 0 0
          0 0 0 0 0 0
          0 0 0 0 0 0
        </DataArray>
        <DataArray type="Float64" Name="sigma" NumberOfComponents="4" format="ascii" RangeMin="5780734.309389221" RangeMax="9878570.03525658">
          -3547096.161516329 -3547096.161516328 -3547096.161516329 3.714977370689767e-12 -5218061.838843359 -5218061.838843359
          -5218061.838843359 5.458336691977733e-11 -4846505.688915923 -4846505.688915915 -4846505.688915917 7.54939438997821e-11
          -4507285.584280958 -4507285.584280964 -4507285.584280963 1.5089569886667102e-10 -4204404.695263288 -4204404.695263287
          -4204404.695263288 -4.289472988528212e-11 -3943657.8884298843 -3943657.8884298857 -3943657.8884298857 -6.635678940834527e-12
          -3723885.1754556834 -3723885.175455686 -3723885.1754556857 -9.424208322706272e-12 -3548271.4145967723 -3548271.41459677
          -3548271.414596771 -6.564562556836863e-12 -3547523.058495765 -3547523.058495766 -3547523.0584957665 -1.0907524221229038e-12
          -3547513.881061104 -3547513.881061108 -3547513.8810611055 1.8002465083626045e-12 -3546205.147988096 -3546205.1479880977
          -3546205.147988096 1.7075570841959227e-11 -3547267.999892622 -3547267.999892615 -3547267.999892615 3.292619062998698e-13
          -3546917.334350386 -3546917.334350385 -3546917.334350384 1.0339201180553523e-11 -3942973.8603557562 -3942973.860355753
          -3942973.860355754 4.6839259196783226e-11 -4205573.072950336 -4205573.072950333 -4205573.072950333 -5.542845851129449e-11
          -4507873.15903645 -4507873.159036451 -4507873.15903645 -9.746312245806031e-11 -3692752.9778607464 -3692752.9778607464
          -3692752.977860747 4.280736686400727e-12 -4568702.462489771 -4568702.462489772 -4568702.462489771 -1.339264731754231e-10
          -3687636.6280682622 -3687636.6280682627 -3687636.6280682627 -3.2880819792490766e-11 -4435254.528582976 -4435254.5285829725
          -4435254.528582973 2.8456317190043322e-11 -5252904.004719994 -5252904.004719997 -5252904.004719997 -9.307664473250152e-11
          -4048754.433807181 -4048754.43380718 -4048754.4338071793 -1.0998483472381949e-10 -3699592.8465110604 -3699592.8465110585
          -3699592.8465110585 3.1987803775989296e-11 -3913156.5683406983 -3913156.5683406983 -3913156.5683406983 7.477736457946243e-11
          -3698307.0997304916 -3698307.0997304874 -3698307.099730488 6.622302432144403e-11 -3698402.3696533693 -3698402.3696533684
          -3698402.3696533684 1.6908428035543958e-11 -3883848.3376256935 -3883848.3376256907 -3883848.3376256907 2.0622591145555213e-11
          -3879033.0009922707 -3879033.000992271 -3879033.0009922693 -2.3971099051664635e-12 -4107092.1416634363 -4107092.141663434
          -4107092.141663435 4.586766813096959e-12 -4353477.527811151 -4353477.527811149 -4353477.527811149 -1.4020307569991906e-11
          -4349507.917780984 -4349507.917780989 -4349507.917780988 8.455906650674118e-12 -4619611.098847463 -4619611.098847466
          -4619611.098847465 1.06359475674624e-11 -4617676.122349383 -4617676.122349381 -4617676.122349382 -8.965037623462139e-12
          -4894407.871110396 -4894407.871110394 -4894407.871110395 4.563298894147937e-13 -4880672.118815912 -4880672.118815914
          -4880672.118815914 -6.532434179057194e-11 -4625188.098751655 -4625188.098751655 -4625188.098751655 2.061138130147417e-11
          -4897524.47015997 -4897524.470159966 -4897524.470159967 -5.5576095840329144e-12 -5093440.104706926 -5093440.104706926
          -5093440.104706926 8.224076484854507e-11 -4636068.958793304 -4636068.958793304 -4636068.958793304 5.824104541209634e-12
          -4450260.783565704 -4450260.7835657075 -4450260.783565707 -1.583496615301335e-10 -5212020.7003677385 -5212020.700367738
          -5212020.700367738 -8.637679923943026e-11 -4356101.973384386 -4356101.973384384 -4356101.973384384 1.4460981911384932e-10
          -4107387.121057906 -4107387.1210579053 -4107387.121057905 -5.699704638292093e-11 -3886094.694557798 -3886094.6945577976
          -3886094.6945577986 -8.165594128675041e-11 -3895081.805170494 -3895081.8051704923 -3895081.8051704927 -6.384766239468805e-11
          -4108333.5981419357 -4108333.5981419343 -4108333.598141934 6.647887743838982e-11 -4125299.6481724423 -4125299.6481724414
          -4125299.648172441 8.718633847014028e-11 -4387828.030589027 -4387828.030589027 -4387828.030589028 -2.9780131627087804e-11
          -3831076.305517168 -3831076.3055171682 -3831076.3055171696 1.209484259768183e-11 -4300682.158868393 -4300682.158868393
          -4300682.158868393 -4.533405819107747e-11 -4886320.478438631 -4886320.478438633 -4886320.478438633 7.914296359628882e-11
          -4906455.400907755 -4906455.400907755 -4906455.400907757 -2.375504155684335e-10 -3687792.7275741436 -3687792.7275741473
          -3687792.727574146 -4.964793941496192e-11 -4375940.674098337 -4375940.674098335 -4375940.674098334 -3.3934992902600975e-11
          -3690825.1655610036 -3690825.1655610045 -3690825.1655610036 -5.684088487138252e-11 -4169030.662743745 -4169030.662743745
          -4169030.662743745 6.520465453273178e-11 -3876835.6850217106 -3876835.685021713 -3876835.6850217134 1.0877550728807463e-11
          -3878256.323989449 -3878256.323989451 -3878256.32398945 3.9125966337662554e-11 -4103694.134769834 -4103694.1347698355
          -4103694.1347698355 -3.5263281517399486e-11 -4363374.466060555 -4363374.466060552 -4363374.466060551 -5.5286698033242325e-11
          -3895097.727223864 -3895097.727223863 -3895097.727223863 2.5856639851712014e-11 -5246850.366999047 -5246850.366999043
          -5246850.366999043 1.324275596945657e-10 -4159738.536617862 -4159738.5366178667 -4159738.536617866 -2.4315143405928285e-11
          -4086201.215772288 -4086201.215772289 -4086201.215772289 -7.11523805064018e-11 -4613764.19840206 -4613764.198402059
          -4613764.198402059 6.750750552424159e-11 -3708175.9627402863 -3708175.962740285 -3708175.9627402844 -1.0910680545352875e-11
          -3429476.3824984897 -3429476.382498493 -3429476.382498493 3.4299193124099956e-12 -3432051.057767872 -3432051.0577678736
          -3432051.0577678755 -1.6720856647998733e-11 -3429799.386235248 -3429799.3862352446 -3429799.386235245 -1.7149596562049978e-11
          -3447081.7654608614 -3447081.765460857 -3447081.765460857 -2.0579515874459972e-12 -3365879.954119278 -3365879.954119276
          -3365879.954119276 5.573618882666242e-12 -3337508.509639572 -3337508.509639572 -3337508.509639572 -2.2049481294064254e-12
          -3429478.9113492533 -3429478.911349254 -3429478.911349255 -6.951950715729441e-12 -3429515.460287817 -3429515.4602878154
          -3429515.4602878164 -8.574798281024989e-12 -3429396.515245659 -3429396.5152456607 -3429396.5152456593 -9.211209090944834e-14
          -3546993.1746537723 -3546993.174653777 -3546993.174653776 -9.74577255765359e-13 -3344358.738977536 -3344358.738977533
          -3344358.7389775333 1.0289757937229989e-11 -3344432.2601836375 -3344432.2601836403 -3344432.260183641 8.574798281024989e-12
          -3414667.6882802355 -3414667.6882802397 -3414667.6882802397 3.4299193124099952e-12 -5656706.190233846 -5656706.190233845
          -5656706.190233844 -4.4135357740253935e-10 -5703395.069063956 -5703395.069063957 -5703395.069063957 6.08478515092333e-11
          -4639090.201868871 -4639090.20186887 -4639090.20186887 3.3096479803352044e-11 -4933863.995695427 -4933863.995695431
          -4933863.995695431 3.167844474240103e-12 -4910920.379165257 -4910920.379165254 -4910920.379165254 -3.041366211406779e-11
          -4675340.089609337 -4675340.089609336 -4675340.089609336 -4.580337073862181e-12 -5616409.353238208 -5616409.353238207
          -5616409.35323821 -1.136535905861525e-11 -5227762.499358541 -5227762.499358542 -5227762.499358542 -3.1604764950295263e-11
          -5191404.276128437 -5191404.276128438 -5191404.276128438 4.884271253636739e-11 -5466189.595240605 -5466189.595240604
          -5466189.595240605 3.131921829623563e-11 -5536476.15291011 -5536476.1529101115 -5536476.1529101115 -6.130468390416832e-11
          -3703555.8263558783 -3703555.82635588 -3703555.8263558806 -7.029951198482575e-11 -4747581.77762687 -4747581.777626875
          -4747581.777626875 -2.2868944576445036e-11 -3547042.2112333192 -3547042.211233317 -3547042.211233317 2.5098343086382335e-11
          -4846891.921382426 -4846891.921382429 -4846891.92138243 1.1143058303822494e-10 -3711685.5879072947 -3711685.587907293
          -3711685.5879072947 4.1813377029950594e-11 -3722981.219955563 -3722981.219955561 -3722981.2199555608 5.3967064917589594e-12
          <InformationKey name="L2_NORM_RANGE" location="vtkDataArray" length="2">
            <Value index="0">
              5780734.3094
            </Value>
            <Value index="1">
              9878570.0353
            </Value>
          </InformationKey>
        </DataArray>
        <DataArray type="Float64" Name="temperature" format="ascii" RangeMin="273.15" RangeMax="273.15">