<?xml version="1.0"?>
<VTKFile type="UnstructuredGrid" version="1.0" byte_order="LittleEndian" header_type="UInt64">
  <UnstructuredGrid>
    <FieldData>
      <DataArray type="Int8" Name="IntegrationPointMetaData" NumberOfTuples="166" format="ascii" RangeMin="34" RangeMax="125">
        123 34 105 110 116 101
        103 114 97 116 105 111
        110 95 112 111 105 110
        116 95 97 114 114 97
        121 115 34 58 91 123
        34 105 110 116 101 103
        114 97 116 105 111 110
        95 111 114 100 101 114
        34 58 51 44 34 110
        97 109 101 34 58 34
        115 105 103 109 97 95
        105 112 34 44 34 110
        117 109 98 101 114 95
        111 102 95 99 111 109
        112 111 110 101 110 116
        115 34 58 52 125 44
        123 34 105 110 116 101
        103 114 97 116 105 111
        110 95 111 114 100 101
        114 34 58 51 44 34
        110 97 109 101 34 58
        34 101 112 115 105 108
        111 110 95 105 112 34
        44 34 110 117 109 98
        101 114 95 111 102 95
        99 111 109 112 111 110
        101 110 116 115 34 58
        52 125 93 125
      </DataArray>
      <DataArray type="Int8" Name="OGS_VERSION" NumberOfTuples="22" format="ascii" RangeMin="45" RangeMax="103">
        54 46 52 46 50 45
        49 49 56 49 45 103
        51 101 51 50 57 57
        57 48 98 48
      </DataArray>
      <DataArray type="Float64" Name="epsilon_ip" NumberOfComponents="4" NumberOfTuples="563" format="ascii" RangeMin="0" RangeMax="0.01366025403787122">
        0 0 0 0 0 0
        0 0 0 0 0 0
        0 0 0 0 0 0
        0 0 0 0 0 0
        0 0 0 0 0 0
        0 0 0 0 0 0
        0 0 0 0 0 0
        0 0 0 0 0 0
        0 0 0 0 0 0
        0 0 0 0 0 0
        0 0 0 0 0 0
        0 0 0 0 0 0
        0 0 0 0 0 0
        0 0 0 0 0 0
        0 0 0 0 0 0
        0 0 0 0 0 0
        0 0 0 0 0 0
        0 0 0 0 0 0
        0 0 0 0 0 0
        0 0 0 0 0 0
        0 0 0 0 0 0
        0 0 0 0 0 0
        0 0 0 0 0 0
        0 0 0 0 0 0
        0 0 0 0 0 0
        0 0 0 0 0 0
        0 0 0 0 0 0
        0 0 0 0 0 0
        0 0 0 0 0 0
        0 0 0 0 0 0
        0 0 0 0 0 0
        0 0 0 0 0 0
        0 0 0 0 0 0
        0 0 0 0 0 0
        0 0 0 0 0 0
        0 0 0 0 0 0
        0 0 0 0 0 0
        0 0 0 0 0 0
        0 0 0 0 0 0
        0 0 0 0 0 0
        0 0 0 0 0 0
        0 0 0 0 0 0
        0 0 0 0 0 0
        0 0 0 0 0 0
        0 0 0 0 0 0
        0 0 0 0 0 0
        0 0 0 0 0 0
        0 0 0 0 0 0
        0 0 0 0 0 0
        0 0 0 0 0 0
        0 0 0 0 0 0
        0 0 0 0 0 0
        0 0 0 0 0 0
        0 0 0 0 0 0
        0 0 0 0 0 0
        0 0 0 0 0 0
        0 0 0 0 0 0
        0 0 0 0 0 0
        0 0 0 0 0 0
        0 0 0 0 0 0
        0 0 0 0 0 0
        0 0 0 0 0 0
        0 0 0 0 0 0
        0 0 0 0 0 0
        0 0 0 0 0 0
        0 0 0 0 0 0
        0 0 0 0 0 0
        0 0 0 0 0 0
        0 0 0 0 0 0
        0 0 0 0 0 0
        0 0 0 0 0 0
        0 0 0 0 0 0
        0 0 0 0 0 0
        0 0 0 0 0 0
        0 0 0 0 0 0
        0 0 0 0 0 0
        0 0 0 0 0 0
        0 0 0 0 0 0
        0 0 0 0 0 0
        0 0 0 0 0 0
        0 0 0 0 0 0
        0 0 0 0 0 0
        0 0 0 0 0 0
        0 0 0 0 0 0
        0 0 0 0 0 0
        0 0 0 0 0 0
        0 0 0 0 0 0
        0 0 0 0 0 0
        0 0 0 0 0 0
        0 0 0 0 0 0
        0 0 0 0 0 0
        0 0 0 0 0 0
        0 0 0 0 0 0
        0 0 0 0 0 0
        0 0 0 0 0 0
        0 0 0 0 0 0
        0 0 0 0 0 0
        0 0 0 0 0 0
        0 0 0 0 0 -0.01047172143555171
        0 -2.3486603709181042e-20 0 -0.01047172143555171 0 -2.3486603709181042e-20
        0 -0.01047172143555171 0 -2.3486603709181042e-20 0 -0.01047172143555171
        0 -2.3486603709181042e-20 0 0 0 0
        0 0 0 0 0 0
        0 0 0 0 0 0
        0 0 0 0 0 0
        0 0 0 0 0 0
        0 0 0 0 0 0
        0 0 0 0 0 0
        0 0 0 0 0 0
        0 0 0 0 0 0
        0 0 0 0 0 0
        0 0 0 0 0 0
        0 -0.011211330523442036 0 0.0007925898369802715 0 -0.011211330523442036
        0 0.0007925898369802715 0 -0.011211330523442036 0 0.0007925898369802715
        0 -0.011211330523442036 0 0.0007925898369802715 0 0
        0 0 0 0 0 0
        0 0 0 0 0 0
        0 0 0 0 0 0
        0 0 0 0 0 0
        0 0 0 0 0 0
        0 0 0 0 0 0
        0 0 0 0 0 0
        0 0 0 0 0 0
        0 0 0 0 0 0
        0 0 0 0 0 0
        0 0 0 0 0 0
        0 0 0 0 0 0
        0 0 0 0 0 0
        0 0 0 0 0 0
        0 0 0 0 0 0
        0 0 0 0 0 0
        0 0 0 0 0 0
        0 0 0 0 0 0
        0 0 0 0 0 0
        0 0 0 0 0 0
        0 0 0 0 0 0
        0 0 0 0 0 0
        0 0 0 0 0 0
        0 0 0 0 0 0
        0 0 0 0 0 0
        0 0 0 0 0 0
        0 0 0 0 0 0
        0 0 0 0 0 0
        0 0 0 0 0 0
        0 0 0 0 0 0
        0 0 0 0 0 0
        0 0 0 0 0 0
        0 0 0 0 0 0
        0 0 0 0 0 0
        0 0 0 0 0 0
        0 0 0 0 0 0
        0 0 0 0 0 0
        0 0 0 0 0 0
        0 0 0 0 0 0
        0 0 0 0 0 0
        0 0 0 0 0 0
        0 0 0 0 0 0
        0 0 0 0 0 0
        0 0 0 0 0 0
        0 0 0 0 0 0
        0 0 0 0 0 0
        0 0 0 0 0 0
        0 0 0 0 0 0
        0 0 0 0 0 0
        0 0 0 0 0 0
        0 0 0 0 0 0
        0 0 0 0 0 0
        0 0 0 0 0 0
        0 0 0 0 0 0
        0 0 0 0 0 0
        0 0 0 0 0 0
        0 0 0 0 0 0
        0 0 0 0 0 0
        0 0 0 0 0 0
        0 0 0 0 0 0
        0 0 0 0 0 0
        0 0 0 0 0 0
        0 0 0 0 0 0
        0 0 0 0 0 0
        0 0 0 0 0 0
        0 0 0 0 0 0
        0 0 0 0 0 0
        0 0 0 0 0 0
        0 0 0 0 0 0
        0 0 0 0 0 0
        0 0 0 0 0 0
        0 0 0 0 0 0
        0 0 0 0 0 0
        0 0 0 0 0 0
        0 0 0 0 0 0
        0 0 0 0 0 0
        0 0 0 0 0 0
        0 0 0 0 0 0
        0 0 0 0 0 0
        0 0 0 0 0 0
        0 0 0 0 0 0
        0 0 0 0 0 0
        0 0 0 -0.01366025403787122 0 2.463730376270184e-19
        0 -0.01366025403787122 0 2.463730376270184e-19 0 -0.01366025403787122
        0 2.463730376270184e-19 0 -0.01366025403787122 0 2.463730376270184e-19
        0 -0.009999999999999993 0 0.0018301270189368972 0 -0.009999999999999993
        0 0.0018301270189368972 0 -0.009999999999999993 0 0.0018301270189368972
        0 -0.009999999999999993 0 0.0018301270189368972 0 0
        0 0 0 0 0 0
        0 0 0 0 0 0
        0 0 0 0 0 0
        0 0 0 0 0 0
        0 0 0 0 0 0
        0 0 0 0 0 0
        0 0 0 0 0 0
        0 0 0 0 0 0
        0 0 0 0 0 0
        0 0 0 0 0 0
        0 0 0 0 0 0
        0 0 0 0 0 0
        0 0 0 0 0 0
        0 0 0 0 0 0
        0 0 0 0 0 0
        0 0 0 0 0 0
        0 0 0 0 0 0
        0 0 0 0 0 0
        0 0 0 0 0 0
        0 0 0 0 0 0
        0 0 0 0 0 0
        0 0 0 0 0 0
        0 0 0 0 0 0
        0 0 0 0 0 0
        0 0 0 0 0 0
        0 0 0 0 0 0
        0 0 0 0 0 0
        0 0 0 0 0 0
        0 0 0 0 0 0
        0 -0.01242735824912257 0 -0.0016841669676455873 0 -0.01242735824912257
        0 -0.0016841669676455873 0 -0.01242735824912257 0 -0.0016841669676455873
        0 -0.01242735824912257 0 -0.0016841669676455873 0 0
        0 0 0 0 0 0
        0 0 0 0 0 0
        0 0 0 0 0 0
        0 0 0 0 0 0
        0 0 0 0 0 0
        0 0 0 0 0 0
        0 0 0 0 0 0
        0 0 0 0 0 0
        0 0 0 0 0 0
        0 0 0 0 0 0
        0 0 0 0 0 0
        0 0 0 0 0 0
        0 0 0 0 0 0
        0 0 0 0 0 0
        0 0 0 0 0 0
        0 0 0 0 0 0
        0 0 0 0 0 0
        0 0 0 0 0 0
        0 0 0 0 0 0
        0 0 0 0 0 0
        0 0 0 0 0 0
        0 0 0 0 0 0
        0 0 0 0 0 0
        0 0 0 0 0 0
        0 0 0 0 0 0
        0 0 0 0 0 0
        0 0 0 0 0 0
        0 0 0 0 0 0
        0 0 0 0 0 0
        0 0 0 0 0 0
        0 0 0 0 0 0
        0 0 0 0 0 0
        0 0 0 0 0 0
        0 0 0 0 0 0
        0 0 0 0 0 0
        0 0 0 0 0 0
        0 0 0 0 0 0
        0 0 0 0 0 0
        0 0 0 0 0 0
        0 0 0 0 0 0
        0 0 0 0 0 0
        0 0 0 0 0 0
        0 0 0 0 0 0
        0 0 0 0 0 0
        0 0 0 0 0 0
        0 0 0 0 0 0
        0 0 0 0 0 0
        0 0 0 0 0 0
        0 0 0 0 0 0
        0 0 0 0 0 0
        0 0 0 0 0 0
        0 0 0 0 0 0
        0 0 0 0 0 0
        0 0 0 0 0 0
        0 0 0 0 0 0
        0 0 0 0 0 0
        0 0 0 0 0 0
        0 0 0 0 0 0
        0 0 0 0 0 0
        0 0 0 0 0 0
        0 0 0 0 0 0
        0 0 0 0 0 0
        0 0 0 0 0 0
        0 0 0 0 0 0
        0 0 0 0 0 0
        0 0 0 0 0 0
        0 0 0 0 0 0
        0 0 0 0 0 0
        0 0 0 0 0 0
        0 0 0 0 0 0
        0 0 0 -0.012262979593406496 0 1.6786841469294016e-19
        0 -0.012262979593406496 0 1.6786841469294016e-19 0 -0.012262979593406496
        0 1.6786841469294016e-19 0 -0.012262979593406496 0 1.6786841469294016e-19
        0 0 0 0 0 0
        0 0 0 0 0 0
        0 0 0 0 0 0
        0 0 0 0 0 0
        0 0 0 0 0 0
        0 0 0 0 0 0
        0 0 0 0 0 0
        0 0 0 0 0 0
        0 0 0 0 0 0
        0 0 0 0 0 0
        0 0 0 0 0 0
        0 0 0 0 0 0
        0 0 0 0 0 0
        0 0 0 0 0 0
        0 0 0 0 0 0
        0 0 0 0 0 0
        0 -0.011909538067753415 0 -0.00031396251398308525 0 -0.011909538067753415
        0 -0.00031396251398308525 0 -0.011909538067753415 0 -0.00031396251398308525
        0 -0.011909538067753415 0 -0.00031396251398308525 0 0
        0 0 0 0 0 0
        0 0 0 0 0 0
        0 0 0 0 0 0
        0 0 0 0 0 0
        0 0 0 0 0 0
        0 0 0 0 0 0
        0 0 0 0 0 0
        0 0 0 0 0 0
        0 0 0 0 0 0
        0 0 0 0 0 0
        0 0 0 0 0 0
        0 0 0 0 0 0
        0 0 0 0 0 0
        0 0 0 0 0 0
        0 0 0 0 0 0
        0 0 0 0 0 0
        0 0 0 0 0 0
        0 0 0 0 0 0
        0 0 0 0 0 0
        0 0 0 0 0 0
        0 0 0 0 0 0
        0 0 0 0 0 0
        0 0 0 0 0 0
        0 0 0 0 0 0
        0 0 0 0 0 0
        0 0 0 0 0 0
        0 0 0 0 0 0
        0 0 0 0 0 0
        0 0 0 0 0 0
        0 0 0 0 0 0
        0 0 0 0 0 0
        0 0 0 0 0 0
        0 0 0 0 0 0
        0 0 0 0 0 0
        0 0 0 0 0 0
        0 0 0 0 0 0
        0 0 0 0 0 0
        0 0 0 0 0 0
        0 0 0 0 0 0
        0 0 0 0 0 0
[...]
      <PointData>
        <DataArray type="Float64" Name="HeatFlowRate" format="ascii" RangeMin="-44.30423500732323" RangeMax="43.54791379225777">
          9.722297272371178e-14 20.47926640370494 3.686117019591354e-14 -6.670183734767576e-14 3.5273308840679204e-14 -2.842170943040401e-14
          4.3761861549836266e-14 -3.6047271891817276e-14 -3.785642141229374e-15 -4.1184428848136525e-14 -6.631869681186912e-14 -6.555044325845562e-14
          6.333567848732036e-14 3.0119340591406655e-14 -7.438106819809969 43.54791379225777 38.92083280194987 8.526512829121202e-14
          -5.684341886080802e-14 1.004455010569983e-13 -2.331450400202779e-14 -6.806775014556124e-14 -6.843453552682248e-14 -1.20163882822514e-13
          -2.9701878348860626e-14 -25.602141799854014 1.1681436922598704e-14 3.631881393346262e-14 4.7424298900955065e-14 -7.0289481294952e-16
          -4.7326268459269974e-14 3.267145604705548e-14 4.806291146588829e-14 -2.9897080176372883e-14 -8.091587570636816e-16 -8.414204390031121e-14
          -4.520499935813804e-14 4.1887417851491125e-14 2.1792103949855616e-14 -3.128204950943305e-14 1.0206560006564127e-14 8.482559252020988e-14
          -3.2396374998594296e-14 2.136931952288576e-13 -9.200788369806515e-14 8.891458811579139e-14 1.317931643235858e-15 2.5782081517245382e-14
          3.672521558853641e-14 7.180589527643807e-14 5.346638281815836e-14 -40.65927314078492 -3.066196354746184e-14 -4.515689395113255e-15
          6.582309182579277e-14 3.992612859522875e-15 -5.429999382528314e-14 -7.025781411373675e-15 2.929361286082616e-14 1.0852178407212078e-13
          -2.227550473881328e-14 -1.987927282917973e-14 -6.54646289613233e-14 -44.30423500732323 -1.3243098862510438e-13 -1.281198692742078e-13
          1.018699899960958e-14 3.450999514882636e-14 4.353845011786816e-14 2.027122260616761e-14 5.300694859496984e-14 6.342803249613941e-14
          -9.962690917850667e-14 5.168744911627884e-14 -2.864952474544147e-14 1.498411654746187e-14 40.69930776431447 3.734632542042464e-15
          1.0875161987750053e-13 -4.592206242143432e-14 -35.726024044752535 -7.440943791413684e-14 0 -8.526512829121202e-14
          8.526512829121202e-14 0 2.842170943040401e-14 -1.1368683772161603e-13
        </DataArray>
        <DataArray type="Float64" Name="MassFlowRate" format="ascii" RangeMin="-6.455403554858674e-10" RangeMax="0">
          0 -3.7005357602058783e-10 0 0 0 0
          0 0 0 0 0 0
          0 0 -1.4840127192748517e-10 -6.071300358453972e-10 -6.455403554858674e-10 0
          0 0 0 0 0 0
          0 -5.757399566622113e-10 0 0 0 0
          0 0 0 0 0 0
          0 0 0 0 0 0
          0 0 0 0 0 0
          0 0 0 -6.007620342070564e-10 0 0
          0 0 0 0 0 0
          0 0 0 -5.208156173567676e-10 0 0
          0 0 0 0 0 0
          0 0 0 0 -6.361376489697808e-10 0
          0 0 -6.04211002896721e-10 0 0 0
          0 0 0 0
        </DataArray>
        <DataArray type="Float64" Name="NodalForces" NumberOfComponents="2" format="ascii" RangeMin="1045.8799356989996" RangeMax="9039765.818399994">
          355331.85409002384 -7552.314753540093 2380197.96937955 -4053615.0849665995 -5.343971194903133 -13521.028530120006
          -3.677059732028283 -13501.199300300592 20.244624259328702 -13118.03836697893 373022.87032439373 -9248.873118533666
          342026.51115949394 -4156.157813836966 333050.65157948656 -2679.9404830061103 328143.8459719019 -1075.9016713494057
          327039.86246257264 221.0773112734896 329344.64412156446 1522.8316830530384 334699.253098947 2871.6709761852107
          342507.84066956997 3380.123377695083 352257.0603492807 4025.340181825144 1207246.7434614708 2255772.119108265
          -651953.2108737766 -9016225.544114582 367213.70109789004 -8149910.26340109 -6.834443083003862 -17181.89127028195
          -1.8592441742075607 -17756.058945921715 4.539567814703332 -10134.64045730859 18.426430903738947 5335.908594851775
          -9.152486977516674 -1091.2708413157961 12.404565901815658 -9987.357901384341 -0.3214507756056264 7113.865062373836
          -3.2516361347879865 -7979.052844315855 16024.477502611262 6510712.942251265 2.4278616296932056 -10101.66069094857
          3.1867894990427885 -6943.058255933065 1.2091903613637296 -6949.7901214197045 3.119088468083646 -3905.4703975670127
          2.4418213499010335 -3899.4051426791993 2.707188172294991 -1050.3956274842203 0.2558810490882024 -1060.7638428365171
          0.3107848843501415 1572.52487728704 0.914581810455843 3901.649371433945 -2.719273707247339 5803.767823226983
          -1.0328877356866997 3860.8358292101475 -2.692798866482917 7252.629375266348 -0.8611665029020514 -6957.740331812573
          -0.5384614402764782 -7265.763218488777 2.6037013744644355 -3990.524788044524 -64.82055559995933 -4144.551705597376
          -2.306827692693332 -1079.6076077686157 -33.85270897776354 1815.5684125961561 -2.51940196409123 1649.454046922503
          1.620565784854989 4177.269148621883 2.6241316595960598 5393.58987914279 2.673078493387152 1580.4476622502552
          -14.64158866656362 -10120.14950617979 11.043215178127866 -6933.951243091433 7.498583221953595 6989.545633267902
          -99863.31380334643 8202511.405614875 2.941349523200188 -3910.8979761398077 -2.4327882277020763 -1060.4271445519407
          3.0303285331392544 8333.436945174384 4.675625108298846 -9231.515975972809 -6.945590625051409 5647.325008031636
          0.7498375350696733 5783.115756333958 2.02120437490521 6485.798643797294 -2.2533743540843716 9082.48080515096
          27.758072823053226 -2976.8016870156266 -8.848352929504472 6895.171204560436 21.522790294722654 1372.1107500276391
          446107.8224949398 7743493.489215777 -7.968108644301537 -7056.638257317623 12.485711543849902 4643.971391584157
          -11.33866329441662 5668.396431475296 -1.562063129269518 -13413.540888869582 -20.506775264802855 -12771.661272772966
          7.201395974103717 -15327.744519302389 24.121816205210052 -10112.81401777637 0.3859904548922941 -3862.3529988975206
          3.1665078194637317 -1045.8751422258647 -1.3474027118936647 7517.320593522265 0.482527484302409 5912.322564437709
          -3.374597001272603 7719.973815225443 -141594.54355211032 -8582597.653368466 1.3315248850396983 3918.5532521291752
          0.2966811100777704 -7313.249216043259 1.933015799072507 1573.7753786887915 72441.27970677275 7813223.400741564
          -0.9876787167740986 7419.294265794582 -4.348015305004083 -17200.119390124048 -22.33557362612919 -17051.290437362302
          8.476921921537723 -21211.59972469177 5.919354299578117 -20947.719868939486 395015.15717410366 -10914.68272719765
          4.073701755696675 -21257.01250770403
          <InformationKey name="L2_NORM_RANGE" location="vtkDataArray" length="2">
            <Value index="0">
              1045.8799357
            </Value>
            <Value index="1">
              9039765.8184
            </Value>
          </InformationKey>
        </DataArray>
        <DataArray type="Float64" Name="displacement" NumberOfComponents="2" format="ascii" RangeMin="0" RangeMax="0.001">
          0 0 0 -0.001 0 0
          0 0 0 0 0 0
          0 0 0 0 0 0
          0 0 0 0 0 0
          0 0 0 0 0 0
          0 -0.001 0 -0.001 0 0
          0 0 0 0 0 0
          0 0 0 0 0 0
          0 0 0 0 0 0
          0 0 0 0 0 0
          0 0 0 0 0 0
          0 0 0 0 0 0
          0 0 0 0 0 0
          0 0 0 0 0 0
          0 0 0 0 0 0
          0 0 0 0 0 0
          0 0 0 0 0 0
          0 0 0 0 0 0
          0 0 0 0 0 0
          0 0 0 0 0 0
          0 0 0 0 0 0
          0 0 0 0 0 0
          0 0 0 0 0 0
          0 0 0 0 0 0
          0 0 0 0 0 0
          0 0 0 -0.001 0 0
          0 0 0 0 0 0
          0 0 0 0 0 0
          0 0 0 0 0 0
          0 0
          <InformationKey name="L2_NORM_RANGE" location="vtkDataArray" length="2">
            <Value index="0">
              0
            </Value>
            <Value index="1">
              0.001
            </Value>
          </InformationKey>
        </DataArray>
        <DataArray type="Float64" Name="epsilon" NumberOfComponents="4" format="ascii" RangeMin="0" RangeMax="0.012199368383519614">
          0 0 0 0 0 -0.01183012701893561
          0 0.0009150635094684487 0 0 0 0
          0 0 0 0 0 0
          0 0 0 0 0 0
          0 0 0 0 0 0
          0 0 0 0 0 0
          0 0 0 0 0 0
          0 0 0 0 0 0
          0 0 0 0 0 0
          0 0 0 -0.003333333333333334 0 0.0006100423396456326
          0 -0.012186444574181837 0 -0.0005613889892151959 0 -0.011315343850800082
          0 0.00026419661232675724 0 0 0 0
          0 0 0 0 0 0
          0 0 0 0 0 0
          0 0 0 0 0 0
          0 0 0 0 0 0
          0 0 0 0 0 -0.004872915744016617
          0 -0.0001273681615236165 0 0 0 0
          0 0 0 0 0 0
          0 0 0 0 0 0
          0 0 0 0 0 0
          0 0 0 0 0 0
          0 0 0 0 0 0
          0 0 0 0 0 0
          0 0 0 0 0 0
          0 0 0 0 0 0
          0 0 0 0 0 0
          0 0 0 0 0 0
          0 0 0 0 0 0
          0 0 0 0 0 0
          0 0 0 0 0 0
          0 0 0 0 0 0
          0 0 0 0 0 0
          0 0 0 0 0 0
          0 -0.005897308030766991 0 0.00007977122049953109 0 0
          0 0 0 0 0 0
          0 0 0 0 0 0
          0 0 0 0 0 0
          0 0 0 0 0 0
          0 0 0 0 0 0
          0 0 0 0 0 0
          0 0 0 0 0 0
          0 -0.0072175224573987565 0 0.000029192010258261926 0 0
          0 0 0 0 0 0
          0 0 0 0 0 0
          0 0 0 0 0 0
          0 0 0 0 0 0
          0 0 0 0 0 0
          0 0 0 0 0 0
          0 0 0 0 0 0
          0 0 0 0 0 -0.011906507681662052
          0 -0.00010465417132769501 0 0 0 0
          0 0 0 0 0 0
          0 0 0 -0.00583392480589857 0 -0.00005232708566593712
          0 0 0 0 0 0
          0 0 0 0 0 0
          0 0 0 0 0 0
          0 0 0 0 0 0
          0 0 0 0
          <InformationKey name="L2_NORM_RANGE" location="vtkDataArray" length="2">
            <Value index="0">
              0
            </Value>
            <Value index="1">
              0.012199368384
            </Value>
          </InformationKey>
        </DataArray>
        <DataArray type="Float64" Name="pressure" format="ascii" RangeMin="0" RangeMax="0">
          0 0 0 0 0 0
          0 0 0 0 0 0
          0 0 0 0 0 0
          0 0 0 0 0 0
          0 0 0 0 0 0
          0 0 0 0 0 0
          0 0 0 0 0 0
          0 0 0 0 0 0
          0 0 0 0 0 0
          0 0 0 0 0 0
          0 0 0 0 0 0
          0 0 0 0 0 0
          0 0 0 0 0 0
          0 0 0 0 0 0
          0 0 0 0
        </DataArray>
        <DataArray type="Float64" Name="pressure_interpolated" format="ascii" RangeMin="0" RangeMax="0">
          0 0 0 0 0 0
          0 0 0 0 0 0
          0 0 0 0 0 0
          0 0 0 0 0 0
          0 0 0 0 0 0
          0 0 0 0 0 0
          0 0 0 0 0 0
          0 0 0 0 0 0
          0 0 0 0 0 0
          0 0 0 0 0 0
          0 0 0 0 0 0
          0 0 0 0 0 0
          0 0 0 0 0 0
          0 0 0 0 0 0
          0 0 0 0
        </DataArray>
        <DataArray type="Float64" Name="sigma" NumberOfComponents="4" format="ascii" RangeMin="5655935.761453128" RangeMax="107971416.22575216">
          -3546160.5465478175 -3546160.5465478175 -3546160.5465478185 2.4100099416799394e-11 -41625366.400775805 -87125854.9351435
          -41625366.400775805 3519475.03641711 -3546993.1746537723 -3546993.174653777 -3546993.174653776 -9.74577255765359e-13
          -3547042.2112333192 -3547042.211233317 -3547042.211233317 2.5098343086382335e-11 -3547327.000089208 -3547327.0000892086
          -3547327.000089208 -3.658580599904008e-12 -3722981.219955563 -3722981.219955561 -3722981.2199555608 5.3967064917589594e-12
          -3413966.1952042044 -3413966.195204208 -3413966.1952042077 1.7149596562049978e-11 -3324645.268648355 -3324645.268648356
          -3324645.2686483576 2.1436995702562476e-11 -3275930.550143684 -3275930.5501436875 -3275930.550143687 3.429919312409995e-12
          -3265456.034394193 -3265456.0343941953 -3265456.0343941953 -1.9722036046357476e-11 -3289148.1446717773 -3289148.144671777
          -3289148.1446717754 -2.0579515874459975e-11 -3343351.3577280394 -3343351.357728043 -3343351.357728043 -4.287399140512496e-11
          -3422270.6847593375 -3422270.684759336 -3422270.684759336 -4.115903174891995e-11 -3520660.1449377723 -3520660.144937773
          -3520660.1449377723 2.0579515874459978e-11 -13247344.549436627 -26067857.36994944 -13247344.54943663 2346316.69094474
          -42653205.50244759 -89524146.17237772 -42653205.502447605 -2159188.4200584455 -40140414.954231 -83660968.226539
          -40140414.95423102 1016140.8166413737 -3703555.8263558783 -3703555.82635588 -3703555.8263558806 -7.029951198482575e-11
          -3711685.5879072947 -3711685.587907293 -3711685.5879072947 4.1813377029950594e-11 -3429478.9113492533 -3429478.911349254
          -3429478.911349255 -6.951950715729441e-12 -3306778.4058616175 -3306778.4058616147 -3306778.4058616157 1.3964671486240698e-11
          -3265682.342907034 -3265682.3429070334 -3265682.3429070334 -1.3597180131339624e-11 -3429917.902044958 -3429917.902044957
          -3429917.902044956 1.0289757937229987e-11 -3467795.209899766 -3467795.2098997664 -3467795.2098997664 -1.0289757937229994e-11
          -3355820.9933480253 -3355820.993348029 -3355820.993348029 5.512370323516066e-12 -17693502.941533715 -36435486.572366856
          -17693502.941533715 -489877.5443216021 -3429515.460287817 -3429515.4602878154 -3429515.4602878164 -8.574798281024989e-12
          -3344298.990461605 -3344298.9904616065 -3344298.9904616065 -6.0023587967174945e-12 -3344306.8285219 -3344306.8285219036
          -3344306.828521902 8.884629859538585e-13 -3290418.573749311 -3290418.573749308 -3290418.573749309 -2.523033908274247e-12
          -3290444.357704529 -3290444.357704531 -3290444.357704531 4.336804716545745e-12 -3266208.7659946405 -3266208.7659946433
          -3266208.7659946415 2.6059347900927515e-12 -3266245.436387355 -3266245.436387358 -3266245.43638736 0
          -3269399.128186041 -3269399.1281860373 -3269399.128186038 5.359248925640403e-14 -3297425.8761360277 -3297425.8761360296
          -3297425.876136029 0 -3347139.41335915 -3347139.41335915 -3347139.413359149 -3.4299193124099936e-12
          -3297456.6425587237 -3297456.642558724 -3297456.6425587223 3.086927381168996e-11 -3416208.861295909 -3416208.8612959087
          -3416208.8612959106 -6.859838624819991e-12 -3344361.026241286 -3344361.0262412857 -3344361.0262412843 1.0770580892617547e-27
          -3346711.5422417657 -3346711.542241761 -3346711.542241764 8.57479828102499e-12 -3290690.2792838993 -3290690.279283902
          -3290690.279283903 3.429919312409992e-12 -3291348.2756327107 -3291348.2756327153 -3291348.275632715 -1.5434636905844987e-11
          -3266134.967516728 -3266134.967516729 -3266134.967516728 -2.4866915014972473e-11 -3270482.7040934083 -3270482.704093412
          -3270482.70409341 -1.0289757937229994e-11 -3269835.5415958334 -3269835.5415958315 -3269835.541595832 -2.1541161785235095e-27
          -3300735.2998778555 -3300735.299877854 -3300735.299877852 6.859838624819987e-12 -3357248.9178327103 -3357248.917832715
          -3357248.9178327117 8.231806349783991e-11 -3269434.661345147 -3269434.6613451424 -3269434.6613451443 -8.574798281024986e-12
          -3429396.515245659 -3429396.5152456607 -3429396.5152456593 -9.211209090944834e-14 -3344358.738977536 -3344358.738977533
          -3344358.7389775333 1.0289757937229989e-11 -3499355.0462181256 -3499355.046218132 -3499355.0462181293 -4.8018870373739956e-11
          -20665049.54287968 -43347003.5073681 -20665049.54287967 306812.38653665787 -3290643.543818571 -3290643.5438185683
          -3290643.543818569 -5.144878968614993e-12 -3266150.071141826 -3266150.071141828 -3266150.0711418265 -1.6155871338926322e-27
          -3571377.88806347 -3571377.888063473 -3571377.8880634718 -7.54582248730199e-11 -3434434.7055462324 -3434434.7055462296
          -3434434.705546228 3.4299193124099936e-12 -3347960.0183381997 -3347960.018338194 -3347960.0183381992 3.429919312409996e-11
          -3379855.840385552 -3379855.840385552 -3379855.8403855525 6.774090642009744e-11 -3421382.9998994893 -3421382.999899491
          -3421382.99989949 6.859838624819991e-11 -3508204.4974659244 -3508204.4974659244 -3508204.497465926 -7.643820181942276e-11
          -3294454.2615908394 -3294454.2615908375 -3294454.2615908375 -5.144878968614971e-13 -3571171.6124412455 -3571171.6124412455
          -3571171.612441245 1.371967724963998e-11 -3273625.353079202 -3273625.3530791975 -3273625.353079199 -5.659366865476492e-12
          -24483113.01638677 -52242814.77561276 -24483113.01638677 112276.96253177652 -3446133.156027929 -3446133.156027925
          -3446133.1560279243 -2.0579515874459976e-12 -3417962.227715043 -3417962.227715039 -3417962.2277150406 1.1524528889697585e-10
          -3572540.5000376976 -3572540.5000376897 -3572540.5000376934 -9.054986984762387e-11 -3546917.334350386 -3546917.334350385
          -3546917.334350384 1.0339201180553523e-11 -3547267.999892622 -3547267.999892615 -3547267.999892615 3.292619062998698e-13
          -3546205.147988096 -3546205.1479880977 -3546205.147988096 1.7075570841959227e-11 -3429476.3824984897 -3429476.382498493
          -3429476.382498493 3.4299193124099956e-12 -3290393.5866052792 -3290393.5866052792 -3290393.5866052792 1.3719677249639983e-11
          -3266257.389369422 -3266257.389369417 -3266257.3893694202 1.1147237765332484e-11 -3415920.587200189 -3415920.5872001895
          -3415920.5872001867 4.1159031748919956e-11 -3347525.796470069 -3347525.7964700703 -3347525.7964700707 -1.7350568396761535e-12
          -3499253.713916829 -3499253.7139168284 -3499253.7139168284 4.458895106132995e-11 -41845695.2355636 -87639955.54964843
          -41845695.23556361 -402516.0435680577 -3297588.807512045 -3297588.807512045 -3297588.807512045 1.2011416654592038e-11
          -3344432.2601836375 -3344432.2601836403 -3344432.260183641 8.574798281024989e-12 -3269484.239723416 -3269484.2397234202
          -3269484.2397234202 3.483511801666402e-12 -20476255.689836938 -42914428.02021605 -20476255.689836934 -201258.02179206585
          -3571160.512679136 -3571160.512679132 -3571160.512679134 2.0579515874459984e-11 -3699592.8465110604 -3699592.8465110585
          -3699592.8465110585 3.1987803775989296e-11 -3698402.3696533693 -3698402.3696533684 -3698402.3696533684 1.6908428035543958e-11
          -3886094.694557798 -3886094.6945577976 -3886094.6945577986 -8.165594128675041e-11 -3895081.805170494 -3895081.8051704923
          -3895081.8051704927 -6.384766239468805e-11 -3942973.8603557562 -3942973.860355753 -3942973.860355754 4.6839259196783226e-11
          -3913156.5683406983 -3913156.5683406983 -3913156.5683406983 7.477736457946243e-11
          <InformationKey name="L2_NORM_RANGE" location="vtkDataArray" length="2">
            <Value index="0">
              5655935.7615
            </Value>
            <Value index="1">
              107971416.23
            </Value>
          </InformationKey>
        </DataArray>
        <DataArray type="Float64" Name="temperature" format="ascii" RangeMin="273.15" RangeMax="293.15">
          273.15 293.15 273.15 273.15 273.15 273.15
          273.15 273.15 273.15 273.15 273.15 273.15
          273.15 273.15 273.15 293.15 293.15 273.15
          273.15 273.15 273.15 273.15 273.15 273.15
          273.15 273.15 273.15 273.15 273.15 273.15
          273.15 273.15 273.15 273.15 273.15 273.15
          273.15 273.15 273.15 273.15 273.15 273.15
          273.15 273.15 273.15 273.15 273.15 273.15
          273.15 273.15 273.15 273.15 273.15 273.15
          273.15 273.15 273.15 273.15 273.15 273.15
          273.15 273.15 273.15 273.15 273.15 273.15
          273.15 273.15 273.15 273.15 273.15 273.15
          273.15 273.15 273.15 273.15 293.15 273.15
          273.15 273.15 273.15 273.15 273.15 273.15
          273.15 273.15 273.15 273.15
        </DataArray>