<?xml version="1.0"?>
<VTKFile type="UnstructuredGrid" version="1.0" byte_order="LittleEndian" header_type="UInt64">
  <UnstructuredGrid>
    <FieldData>
      <DataArray type="Int8" Name="IntegrationPointMetaData" NumberOfTuples="166" format="ascii" RangeMin="34" RangeMax="125">
        123 34 105 110 116 101
        103 114 97 116 105 111
        110 95 112 111 105 110
        116 95 97 114 114 97
        121 115 34 58 91 123
        34 105 110 116 101 103
        114 97 116 105 111 110
        95 111 114 100 101 114
        34 58 51 44 34 110
        97 109 101 34 58 34
        115 105 103 109 97 95
        105 112 34 44 34 110
        117 109 98 101 114 95
        111 102 95 99 111 109
        112 111 110 101 110 116
        115 34 58 52 125 44
        123 34 105 110 116 101
        103 114 97 116 105 111
        110 95 111 114 100 101
        114 34 58 51 44 34
        110 97 109 101 34 58
        34 101 112 115 105 108
        111 110 95 105 112 34
        44 34 110 117 109 98
        101 114 95 111 102 95
        99 111 109 112 111 110
        101 110 116 115 34 58
        52 125 93 125
      </DataArray>
      <DataArray type="Int8" Name="OGS_VERSION" NumberOfTuples="22" format="ascii" RangeMin="45" RangeMax="103">
        54 46 52 46 50 45
        49 49 56 49 45 103
        51 101 51 50 57 57
        57 48 98 48
      </DataArray>
      <DataArray type="Float64" Name="epsilon_ip" NumberOfComponents="4" NumberOfTuples="576" format="ascii" RangeMin="0" RangeMax="0">
        0 0 0 0 0 0
        0 0 0 0 0 0
        0 0 0 0 0 0
        0 0 0 0 0 0
        0 0 0 0 0 0
        0 0 0 0 0 0
        0 0 0 0 0 0
        0 0 0 0 0 0
        0 0 0 0 0 0
        0 0 0 0 0 0
        0 0 0 0 0 0
        0 0 0 0 0 0
        0 0 0 0 0 0
        0 0 0 0 0 0
        0 0 0 0 0 0
        0 0 0 0 0 0
        0 0 0 0 0 0
        0 0 0 0 0 0
        0 0 0 0 0 0
        0 0 0 0 0 0
        0 0 0 0 0 0
        0 0 0 0 0 0
        0 0 0 0 0 0
        0 0 0 0 0 0
        0 0 0 0 0 0
        0 0 0 0 0 0
        0 0 0 0 0 0
        0 0 0 0 0 0
        0 0 0 0 0 0
        0 0 0 0 0 0
        0 0 0 0 0 0
        0 0 0 0 0 0
        0 0 0 0 0 0
        0 0 0 0 0 0
        0 0 0 0 0 0
        0 0 0 0 0 0
        0 0 0 0 0 0
        0 0 0 0 0 0
        0 0 0 0 0 0
        0 0 0 0 0 0
        0 0 0 0 0 0
        0 0 0 0 0 0
        0 0 0 0 0 0
        0 0 0 0 0 0
        0 0 0 0 0 0
        0 0 0 0 0 0
        0 0 0 0 0 0
        0 0 0 0 0 0
        0 0 0 0 0 0
        0 0 0 0 0 0
        0 0 0 0 0 0
        0 0 0 0 0 0
        0 0 0 0 0 0
        0 0 0 0 0 0
        0 0 0 0 0 0
        0 0 0 0 0 0
        0 0 0 0 0 0
        0 0 0 0 0 0
        0 0 0 0 0 0
        0 0 0 0 0 0
        0 0 0 0 0 0
        0 0 0 0 0 0
        0 0 0 0 0 0
        0 0 0 0 0 0
        0 0 0 0 0 0
        0 0 0 0 0 0
        0 0 0 0 0 0
        0 0 0 0 0 0
        0 0 0 0 0 0
        0 0 0 0 0 0
        0 0 0 0 0 0
        0 0 0 0 0 0
        0 0 0 0 0 0
        0 0 0 0 0 0
        0 0 0 0 0 0
        0 0 0 0 0 0
        0 0 0 0 0 0
        0 0 0 0 0 0
        0 0 0 0 0 0
        0 0 0 0 0 0
        0 0 0 0 0 0
        0 0 0 0 0 0
        0 0 0 0 0 0
        0 0 0 0 0 0
        0 0 0 0 0 0
        0 0 0 0 0 0
        0 0 0 0 0 0
        0 0 0 0 0 0
        0 0 0 0 0 0
        0 0 0 0 0 0
        0 0 0 0 0 0
        0 0 0 0 0 0
        0 0 0 0 0 0
        0 0 0 0 0 0
        0 0 0 0 0 0
        0 0 0 0 0 0
        0 0 0 0 0 0
        0 0 0 0 0 0
        0 0 0 0 0 0
        0 0 0 0 0 0
        0 0 0 0 0 0
        0 0 0 0 0 0
        0 0 0 0 0 0
        0 0 0 0 0 0
        0 0 0 0 0 0
        0 0 0 0 0 0
        0 0 0 0 0 0
        0 0 0 0 0 0
        0 0 0 0 0 0
        0 0 0 0 0 0
        0 0 0 0 0 0
        0 0 0 0 0 0
        0 0 0 0 0 0
        0 0 0 0 0 0
        0 0 0 0 0 0
        0 0 0 0 0 0
        0 0 0 0 0 0
        0 0 0 0 0 0
        0 0 0 0 0 0
        0 0 0 0 0 0
        0 0 0 0 0 0
        0 0 0 0 0 0
        0 0 0 0 0 0
        0 0 0 0 0 0
        0 0 0 0 0 0
        0 0 0 0 0 0
        0 0 0 0 0 0
        0 0 0 0 0 0
        0 0 0 0 0 0
        0 0 0 0 0 0
        0 0 0 0 0 0
        0 0 0 0 0 0
        0 0 0 0 0 0
        0 0 0 0 0 0
        0 0 0 0 0 0
        0 0 0 0 0 0
        0 0 0 0 0 0
        0 0 0 0 0 0
        0 0 0 0 0 0
        0 0 0 0 0 0
        0 0 0 0 0 0
        0 0 0 0 0 0
        0 0 0 0 0 0
        0 0 0 0 0 0
        0 0 0 0 0 0
        0 0 0 0 0 0
        0 0 0 0 0 0
        0 0 0 0 0 0
        0 0 0 0 0 0
        0 0 0 0 0 0
        0 0 0 0 0 0
        0 0 0 0 0 0
        0 0 0 0 0 0
        0 0 0 0 0 0
        0 0 0 0 0 0
        0 0 0 0 0 0
        0 0 0 0 0 0
        0 0 0 0 0 0
        0 0 0 0 0 0
        0 0 0 0 0 0
        0 0 0 0 0 0
        0 0 0 0 0 0
        0 0 0 0 0 0
        0 0 0 0 0 0
        0 0 0 0 0 0
        0 0 0 0 0 0
        0 0 0 0 0 0
        0 0 0 0 0 0
        0 0 0 0 0 0
        0 0 0 0 0 0
        0 0 0 0 0 0
        0 0 0 0 0 0
        0 0 0 0 0 0
        0 0 0 0 0 0
        0 0 0 0 0 0
        0 0 0 0 0 0
        0 0 0 0 0 0
        0 0 0 0 0 0
        0 0 0 0 0 0
        0 0 0 0 0 0
        0 0 0 0 0 0
        0 0 0 0 0 0
        0 0 0 0 0 0
        0 0 0 0 0 0
        0 0 0 0 0 0
        0 0 0 0 0 0
        0 0 0 0 0 0
        0 0 0 0 0 0
        0 0 0 0 0 0
        0 0 0 0 0 0
        0 0 0 0 0 0
        0 0 0 0 0 0
        0 0 0 0 0 0
        0 0 0 0 0 0
        0 0 0 0 0 0
        0 0 0 0 0 0
        0 0 0 0 0 0
        0 0 0 0 0 0
        0 0 0 0 0 0
        0 0 0 0 0 0
        0 0 0 0 0 0
        0 0 0 0 0 0
        0 0 0 0 0 0
        0 0 0 0 0 0
        0 0 0 0 0 0
        0 0 0 0 0 0
        0 0 0 0 0 0
        0 0 0 0 0 0
        0 0 0 0 0 0
        0 0 0 0 0 0
        0 0 0 0 0 0
        0 0 0 0 0 0
        0 0 0 0 0 0
        0 0 0 0 0 0
        0 0 0 0 0 0
        0 0 0 0 0 0
        0 0 0 0 0 0
        0 0 0 0 0 0
        0 0 0 0 0 0
        0 0 0 0 0 0
        0 0 0 0 0 0
        0 0 0 0 0 0
        0 0 0 0 0 0
        0 0 0 0 0 0
        0 0 0 0 0 0
        0 0 0 0 0 0
        0 0 0 0 0 0
        0 0 0 0 0 0
        0 0 0 0 0 0
        0 0 0 0 0 0
        0 0 0 0 0 0
        0 0 0 0 0 0
        0 0 0 0 0 0
        0 0 0 0 0 0
        0 0 0 0 0 0
        0 0 0 0 0 0
        0 0 0 0 0 0
        0 0 0 0 0 0
        0 0 0 0 0 0
        0 0 0 0 0 0
        0 0 0 0 0 0
        0 0 0 0 0 0
        0 0 0 0 0 0
        0 0 0 0 0 0
        0 0 0 0 0 0
        0 0 0 0 0 0
        0 0 0 0 0 0
        0 0 0 0 0 0
        0 0 0 0 0 0
        0 0 0 0 0 0
        0 0 0 0 0 0
        0 0 0 0 0 0
        0 0 0 0 0 0
        0 0 0 0 0 0
        0 0 0 0 0 0
        0 0 0 0 0 0
        0 0 0 0 0 0
        0 0 0 0 0 0
        0 0 0 0 0 0
        0 0 0 0 0 0
        0 0 0 0 0 0
        0 0 0 0 0 0
        0 0 0 0 0 0
        0 0 0 0 0 0
        0 0 0 0 0 0
        0 0 0 0 0 0
        0 0 0 0 0 0
        0 0 0 0 0 0
        0 0 0 0 0 0
        0 0 0 0 0 0
        0 0 0 0 0 0
        0 0 0 0 0 0
        0 0 0 0 0 0
        0 0 0 0 0 0
        0 0 0 0 0 0
        0 0 0 0 0 0
        0 0 0 0 0 0
        0 0 0 0 0 0
        0 0 0 0 0 0
        0 0 0 0 0 0
        0 0 0 0 0 0
        0 0 0 0 0 0
        0 0 0 0 0 0
        0 0 0 0 0 0
        0 0 0 0 0 0
        0 0 0 0 0 0
        0 0 0 0 0 0
        0 0 0 0 0 0
        0 0 0 0 0 0
        0 0 0 0 0 0
        0 0 0 0 0 0
        0 0 0 0 0 0
        0 0 0 0 0 0
        0 0 0 0 0 0
        0 0 0 0 0 0
        0 0 0 0 0 0
        0 0 0 0 0 0
        0 0 0 0 0 0
        0 0 0 0 0 0
        0 0 0 0 0 0
        0 0 0 0 0 0
        0 0 0 0 0 0
        0 0 0 0 0 0
        0 0 0 0 0 0
        0 0 0 0 0 0
        0 0 0 0 0 0
        0 0 0 0 0 0
        0 0 0 0 0 0
        0 0 0 0 0 0
        0 0 0 0 0 0
        0 0 0 0 0 0
        0 0 0 0 0 0
        0 0 0 0 0 0
        0 0 0 0 0 0
        0 0 0 0 0 0
        0 0 0 0 0 0
        0 0 0 0 0 0
        0 0 0 0 0 0
        0 0 0 0 0 0
        0 0 0 0 0 0
        0 0 0 0 0 0
        0 0 0 0 0 0
        0 0 0 0 0 0
        0 0 0 0 0 0
        0 0 0 0 0 0
        0 0 0 0 0 0
        0 0 0 0 0 0
        0 0 0 0 0 0
        0 0 0 0 0 0
        0 0 0 0 0 0
        0 0 0 0 0 0
        0 0 0 0 0 0
        0 0 0 0 0 0
        0 0 0 0 0 0
        0 0 0 0 0 0
        0 0 0 0 0 0
        0 0 0 0 0 0
        0 0 0 0 0 0
        0 0 0 0 0 0
        0 0 0 0 0 0
        0 0 0 0 0 0
        0 0 0 0 0 0
        0 0 0 0 0 0
        0 0 0 0 0 0
        0 0 0 0 0 0
        0 0 0 0 0 0
        0 0 0 0 0 0
        0 0 0 0 0 0
        0 0 0 0 0 0
        0 0 0 0 0 0
        0 0 0 0 0 0
        0 0 0 0 0 0
        0 0 0 0 0 0
        0 0 0 0 0 0
        0 0 0 0 0 0
        0 0 0 0 0 0
        0 0 0 0 0 0
        0 0 0 0 0 0
        0 0 0 0 0 0
        0 0 0 0 0 0
        0 0 0 0 0 0
        0 0 0 0 0 0
        0 0 0 0 0 0
        0 0 0 0 0 0
        0 0 0 0 0 0
        0 0 0 0 0 0
        0 0 0 0 0 0
        0 0 0 0 0 0
        0 0 0 0 0 0
        0 0 0 0 0 0
        0 0 0 0 0 0
        0 0 0 0 0 0
        0 0 0 0 0 0
        0 0 0 0 0 0
        0 0 0 0 0 0
        0 0 0 0 0 0
        0 0 0 0 0 0
        0 0 0 0 0 0
        0 0 0 0 0 0
        0 0 0 0 0 0
        0 0 0 0 0 0
        0 0 0 0 0 0
        0 0 0 0 0 0
        0 0 0 0 0 0
        <InformationKey name="L2_NORM_RANGE" location="vtkDataArray" length="2">
          <Value index="0">
            0
          </Value>
          <Value index="1">
            0
          </Value>
        </InformationKey>
      </DataArray>
      <DataArray type="Float64" Name="sigma_ip" NumberOfComponents="4" NumberOfTuples="576" format="ascii" RangeMin="7589124.491338449" RangeMax="22520708.1687449">
        -6022102.191572891 -6022102.19157289 -6022102.19157289 3.292722539913596e-10 -5874002.797327549 -5874002.79732755
        -5874002.79732755 -3.292722539913596e-10 -5725903.403082212 -5725903.4030822115 -5725903.403082212 3.292722539913596e-10
        -6018574.522393963 -6018574.522393962 -6018574.522393962 3.292722539913596e-10 -5869079.843254112 -5869079.843254113
[...]
      <PointData>
        <DataArray type="Float64" Name="HeatFlowRate" format="ascii" RangeMin="-68.42586729730178" RangeMax="77.77699265540355">
          32.69490823534514 33.17854052508658 66.75300905060226 71.35997234378601 77.708042131773 70.28590499427017
          70.40944289039764 77.77699265540355 76.47037733055956 72.42009480075706 67.90426960350706 -27.064080459347814
          2.842170943040401e-14 1.4210854715202004e-13 -2.842170943040401e-14 0 1.4210854715202004e-13 0
          -28.926788789177934 8.526512829121202e-14 -64.52030389686612 -57.25630745115076 -66.67716555957986 5.684341886080802e-14
          -63.65969570273708 2.842170943040401e-14 0 2.842170943040401e-14 -2.842170943040401e-14 -1.4210854715202004e-13
          0 5.684341886080802e-14 -2.842170943040401e-14 -8.526512829121202e-14 8.526512829121202e-14 -8.526512829121202e-14
          5.684341886080802e-14 -2.842170943040401e-14 -8.526512829121202e-14 2.842170943040401e-14 -2.2737367544323206e-13 -2.842170943040401e-14
          -68.42586729730178 -40.449014756368975 -58.58311519272215 2.842170943040401e-14 0 -5.684341886080802e-14
          -1.1368683772161603e-13 -2.842170943040401e-14 5.684341886080802e-14 -8.526512829121202e-14 -1.4210854715202004e-13 -61.80531097720191
          5.684341886080802e-14 1.1368683772161603e-13 -1.9895196601282805e-13 8.526512829121202e-14 2.842170943040401e-14 0
          5.684341886080802e-14 -14.643783759141924 5.684341886080802e-14 -5.684341886080802e-14 -58.361906179119245 -60.52595913325876
          8.526512829121202e-14 -1.4210854715202004e-13 -1.4210854715202004e-13 1.4210854715202004e-13 5.684341886080802e-14 -1.4210854715202004e-13
          2.842170943040401e-14 -5.684341886080802e-14 1.1368683772161603e-13 5.684341886080802e-14 -2.842170943040401e-14 5.684341886080802e-14
          0 2.842170943040401e-14 -1.4210854715202004e-13 5.684341886080802e-14
        </DataArray>
        <DataArray type="Float64" Name="MassFlowRate" format="ascii" RangeMin="-1.5143897770451313e-10" RangeMax="0">
          -3.0402838925101216e-11 -2.822506097855075e-11 -5.449616511746709e-11 -3.7974930105069504e-11 -1.2322272915159784e-11 -6.378332028853206e-11
          -2.7708664973274937e-11 -1.3895706640051777e-11 -1.9451180897617715e-11 -3.239614515719322e-11 -4.8080801695248226e-11 -7.13751367415836e-11
          0 0 0 0 0 0
          -7.511076442029785e-11 0 -1.4409981937062004e-10 -1.1582852356813062e-10 -1.4722675091060753e-10 0
          -1.4998278039134128e-10 0 0 0 0 0
          0 0 0 0 0 0
          0 0 0 0 0 0
          -1.4764211018922207e-10 -1.0491318103620748e-10 -1.3208164776458227e-10 0 0 0
          0 0 0 0 0 -1.4444091752711702e-10
          0 0 0 0 0 0
          0 -2.769445994126308e-11 0 0 -1.4501002164963638e-10 -1.5143897770451313e-10
          0 0 0 0 0 0
          0 0 0 0 0 0
          0 0 0 0
        </DataArray>
        <DataArray type="Float64" Name="NodalForces" NumberOfComponents="2" format="ascii" RangeMin="16298.490364315632" RangeMax="1255835.2623461494">
          698403.5079305989 607579.6297010463 -696442.588223706 612729.0712990626 -9224.08629331144 1216501.6886295374
          -14279.695362177445 1222236.097674889 -13200.375425477745 1255765.8843274284 20159.926284513494 1076012.8584331064
          -16226.247687056893 1248121.7667614818 1216.0495009567821 1235629.9400008782 7665.593194377958 1233016.023811683
          10834.025217559538 1232724.4352025888 11092.069076383137 1228286.2380670528 -818160.216811616 -282849.2949390383
          -603775.9749089826 -19523.39838514838 -561990.8534509675 -18985.5392354285 485248.1466652547 -18187.54264949786
          522249.2353785738 -26464.56949599876 562004.2293340303 -17079.873834453378 603817.9830738656 -20082.546671136573
          822100.0701451129 -293695.4168423248 6.152282047842164 -34788.603236246825 -32449.54967064658 -516651.543092914
          58906.61577252473 -350251.97318615636 15331.748325527413 -549838.5244103841 -11.907296198303811 -30789.31200112574
          -28562.132520321407 -576098.9443201704 -1.7959316213382408 -38999.21087320283 -16.64525720232632 -30452.799661358993
          -5.014166140696034 -33074.84696910338 -7.366679439262953 -32539.98668916701 -8.059472478373209 -31708.115240078245
          -0.13845651951851323 -31339.823527863045 -2.498630643298384 -26310.577025471197 22.12997507036198 -38221.66445875174
          1.178068945198902 -44954.74291250855 -10.009886145533528 -52677.774466142146 -14.771020104293711 -35979.140016959165
          8.513277701626066 -50915.78452113317 16.456987123994622 -19396.475225832895 -6.020132572972216 -31251.697977119766
          -10.495176213560626 -30166.860887340183 -5.983745992882177 -32176.036070738424 12.490879636228783 -27650.271706995743
          2437.2775523061864 -544276.4538144304 -38479.15558832376 -419278.93038686656 -26404.98018291808 -503887.24645823403
          -28.548609716584906 -47531.59084876104 -2.5754339098057244 -40432.86166652234 9.80316439224407 -30509.73656436242
          28.112231522391085 -31602.406702907552 10.615796611295082 -40724.01968511136 -4.79262242425466 -32804.07191225092
          -14.69398265046766 -41755.28728447232 2.335356960480567 -30074.455252367945 21664.345648786693 -550944.3465613977
          11.149201685911976 -30928.10166193382 -15.20956359693082 -18573.758849303093 -8.535564483434428 -35633.24844080565
          -2.9419802877964685 -31856.213494338386 12.190502068959177 -27996.410362164082 0.194530404987745 -26054.457763376326
          -15.930518658540677 -16411.816139962502 19892.04182514525 -121102.1967061048 1.103375612059608 -33637.42659671762
          -16.150544709074893 -16810.341955055424 22182.497951294063 -560133.959179329 -18449.379153383896 -585901.7445716183
          9.723925067926757 -27501.571466530324 4.401002293918282 -36269.57102895534 -18.653505835914984 -34624.215602397424
          -4.701166588580236 -28710.192936769745 0.9334354273451027 -28163.260547279147 4.97393966303207 -28627.015423161385
          -522257.3575187619 -17687.614897517196 -5.948686399875442 -25242.919208171283 -9.737127003754722 -26259.9982508221
          -56.11497117392719 -37730.030760631664 82.2448773245851 -31905.031275408808 -85.65353666807641 -22634.59012839262
          67.74243355856743 -16298.34958265361 -17.62479816545965 -27204.0071756939 7.571751504234271 -29150.213636443077
          451420.87597086374 -14986.113923346245
          <InformationKey name="L2_NORM_RANGE" location="vtkDataArray" length="2">
            <Value index="0">
              16298.490364
            </Value>
            <Value index="1">
              1255835.2623
            </Value>
          </InformationKey>
        </DataArray>
        <DataArray type="Float64" Name="displacement" NumberOfComponents="2" format="ascii" RangeMin="0" RangeMax="0">
          0 0 0 0 0 0
          0 0 0 0 0 0
          0 0 0 0 0 0
          0 0 0 0 0 0
          0 0 0 0 0 0
          0 0 0 0 0 0
          0 0 0 0 0 0
          0 0 0 0 0 0
          0 0 0 0 0 0
          0 0 0 0 0 0
          0 0 0 0 0 0
          0 0 0 0 0 0
          0 0 0 0 0 0
          0 0 0 0 0 0
          0 0 0 0 0 0
          0 0 0 0 0 0
          0 0 0 0 0 0
          0 0 0 0 0 0
          0 0 0 0 0 0
          0 0 0 0 0 0
          0 0 0 0 0 0
          0 0 0 0 0 0
          0 0 0 0 0 0
          0 0 0 0 0 0
          0 0 0 0 0 0
          0 0 0 0 0 0
          0 0 0 0 0 0
          0 0
          <InformationKey name="L2_NORM_RANGE" location="vtkDataArray" length="2">
            <Value index="0">
              0
            </Value>
            <Value index="1">
              0
            </Value>
          </InformationKey>
        </DataArray>
        <DataArray type="Float64" Name="epsilon" NumberOfComponents="4" format="ascii" RangeMin="0" RangeMax="0">
          0 0 0 0 0 0
          0 0 0 0 0 0
          0 0 0 0 0 0
          0 0 0 0 0 0
          0 0 0 0 0 0
          0 0 0 0 0 0
          0 0 0 0 0 0
          0 0 0 0 0 0
          0 0 0 0 0 0
          0 0 0 0 0 0
          0 0 0 0 0 0
          0 0 0 0 0 0
          0 0 0 0 0 0
          0 0 0 0 0 0
          0 0 0 0 0 0
          0 0 0 0 0 0
          0 0 0 0 0 0
          0 0 0 0 0 0
          0 0 0 0 0 0
          0 0 0 0 0 0
          0 0 0 0 0 0
          0 0 0 0 0 0
          0 0 0 0 0 0
          0 0 0 0 0 0
          0 0 0 0 0 0
          0 0 0 0 0 0
          0 0 0 0 0 0
          0 0 0 0 0 0
          0 0 0 0 0 0
          0 0 0 0 0 0
          0 0 0 0 0 0
          0 0 0 0 0 0
          0 0 0 0 0 0
          0 0 0 0 0 0
          0 0 0 0 0 0
          0 0 0 0 0 0
          0 0 0 0 0 0
          0 0 0 0 0 0
          0 0 0 0 0 0
          0 0 0 0 0 0
          0 0 0 0 0 0
          0 0 0 0 0 0
          0 0 0 0 0 0
          0 0 0 0 0 0
          0 0 0 0 0 0
          0 0 0 0 0 0
          0 0 0 0 0 0
          0 0 0 0 0 0
          0 0 0 0 0 0
          0 0 0 0 0 0
          0 0 0 0 0 0
          0 0 0 0 0 0
          0 0 0 0 0 0
          0 0 0 0 0 0
          0 0 0 0
          <InformationKey name="L2_NORM_RANGE" location="vtkDataArray" length="2">
            <Value index="0">
              0
            </Value>
            <Value index="1">
              0
            </Value>
          </InformationKey>
        </DataArray>
        <DataArray type="Float64" Name="pressure" format="ascii" RangeMin="0" RangeMax="4000000">
          4000000 4000000 4000000 4000000 4000000 4000000
          4000000 4000000 4000000 4000000 4000000 0
          0 0 0 0 0 0
          0 0 0 0 0 0
          0 0 0 0 0 0
          0 0 0 0 0 0
          0 0 0 0 0 0
          0 0 0 0 0 0
          0 0 0 0 0 0
          0 0 0 0 0 0
          0 0 0 0 0 0
          0 0 0 0 0 0
          0 0 0 0 0 0
          0 0 0 0
        </DataArray>
        <DataArray type="Float64" Name="pressure_interpolated" format="ascii" RangeMin="0" RangeMax="0">
          0 0 0 0 0 0
          0 0 0 0 0 0
          0 0 0 0 0 0
          0 0 0 0 0 0
          0 0 0 0 0 0
          0 0 0 0 0 0
          0 0 0 0 0 0
          0 0 0 0 0 0
          0 0 0 0 0 0
          0 0 0 0 0 0
          0 0 0 0 0 0
          0 0 0 0 0 0
          0 0 0 0 0 0
          0 0 0 0
        </DataArray>
        <DataArray type="Float64" Name="sigma" NumberOfComponents="4" format="ascii" RangeMin="7533568.701519784" RangeMax="23934777.097092457">
          -13818750.000000007 -13818750.000000017 -13818750.000000007 1.9843372900213838e-9 -13818750.000000019 -13818750.000000026
          -13818750.000000015 -5.943717856755552e-10 -13818750.000000004 -13818750.000000011 -13818750.000000007 -9.41936942666435e-10
          -13818750.000000007 -13818750.00000001 -13818750.000000011 4.715587185685979e-10 -13818750.000000011 -13818750.000000007
          -13818750.00000001 -5.920851728006145e-10 -13818750.00000001 -13818750.00000001 -13818750.00000001 2.2731644708257952e-11
          -13818750.000000015 -13818750.000000015 -13818750.000000015 -1.1614002359409148e-11 -13818750.000000013 -13818750.000000011
          -13818750.000000011 -5.944271213538714e-10 -13818750.000000007 -13818750.000000007 -13818750.000000007 2.200514432833741e-9
          -13818750.000000007 -13818750.000000007 -13818750.000000007 -1.9705438318673197e-9 -13818750.000000007 -13818750.000000007
          -13818750.000000007 3.315957573185119e-10 -6468679.876196872 -6468679.876196868 -6468679.876196871 1.3531583556335204e-9
          -6035368.067791055 -6035368.067791059 -6035368.067791058 3.845509008369986e-10 -5616409.353238208 -5616409.353238207
          -5616409.35323821 -1.136535905861525e-11 -4846891.921382426 -4846891.921382429 -4846891.92138243 1.1143058303822494e-10
          -5217458.146349666 -5217458.146349665 -5217458.146349666 -1.366047100640521e-10 -5616612.107466418 -5616612.107466416
          -5616612.107466416 8.450267911410939e-11 -6035808.506086526 -6035808.506086526 -6035808.506086526 -4.6137714034656344e-10
          -6468998.277545559 -6468998.27754556 -6468998.27754556 1.1556617631499804e-10 -5056492.810359856 -5056492.810359854
          -5056492.810359854 1.6461743249481382e-10 -6552699.200112602 -6552699.200112603 -6552699.200112602 -2.2184565836808907e-10
          -6577351.538438305 -6577351.538438305 -6577351.538438305 2.3923377303782297e-10 -6546891.468297278 -6546891.468297278
          -6546891.468297278 1.0520538937820737e-9 -5684764.023573397 -5684764.023573401 -5684764.023573401 -8.47444240539312e-11
          -6513233.755524139 -6513233.755524139 -6513233.755524138 -4.78446076242036e-10 -6078703.007760724 -6078703.007760721
          -6078703.007760721 -6.73165946592282e-10 -4910920.379165257 -4910920.379165254 -4910920.379165254 -3.041366211406779e-11
          -5227762.499358541 -5227762.499358542 -5227762.499358542 -3.1604764950295263e-11 -5251416.571604495 -5251416.571604494
          -5251416.571604494 1.7636347184484918e-10 -4933863.995695427 -4933863.995695431 -4933863.995695431 3.167844474240103e-12
          -5582780.82283742 -5582780.822837421 -5582780.822837421 -3.7312932753097945e-10 -5609498.193300172 -5609498.193300171
          -5609498.19330017 5.069388538991561e-10 -5574944.956255209 -5574944.956255207 -5574944.956255207 6.418242022121698e-11
          -5995154.988042922 -5995154.988042923 -5995154.988042923 2.454972064541794e-10 -5466189.595240605 -5466189.595240604
          -5466189.595240605 3.131921829623563e-11 -5901478.058904425 -5901478.058904425 -5901478.058904425 4.6469633014352615e-11
          -5703395.069063956 -5703395.069063957 -5703395.069063957 6.08478515092333e-11 -5936186.01519682 -5936186.01519682
          -5936186.015196818 4.952360404918727e-10 -4675340.089609337 -4675340.089609336 -4675340.089609336 -4.580337073862181e-12
          -4639090.201868871 -4639090.20186887 -4639090.20186887 3.3096479803352044e-11 -4980688.099095967 -4980688.099095966
          -4980688.099095966 5.5947980902437384e-11 -5358187.173282906 -5358187.1732829055 -5358187.173282905 -7.026266743906844e-11
          -6559379.491979553 -6559379.491979552 -6559379.491979553 3.819496964833535e-10 -6481206.440454786 -6481206.440454785
          -6481206.440454785 -1.0093090142349696e-10 -6554093.947208033 -6554093.947208034 -6554093.947208032 6.086170030786652e-10
          -6058046.612583194 -6058046.612583194 -6058046.612583195 -2.0075723232928938e-10 -5656706.190233846 -5656706.190233845
          -5656706.190233844 -4.4135357740253935e-10 -5903775.289225711 -5903775.289225711 -5903775.289225711 3.246356413755593e-10
          -5191404.276128437 -5191404.276128438 -5191404.276128438 4.884271253636739e-11 -5536476.15291011 -5536476.1529101115
          -5536476.1529101115 -6.130468390416832e-11 -5891748.856922905 -5891748.856922908 -5891748.856922908 -2.0307976875797329e-10
          -6066106.675695203 -6066106.675695204 -6066106.675695203 5.444800741935325e-10 -5667402.061164647 -5667402.061164648
          -5667402.061164647 -1.1495763264405186e-10 -6522332.607010558 -6522332.607010558 -6522332.607010558 -7.098272906339187e-10
          -5295706.263213773 -5295706.263213774 -5295706.263213774 -1.2013447930317197e-10 -5426199.129798155 -5426199.129798155
          -5426199.129798156 1.014484275869993e-10 -6134333.144203753 -6134333.144203758 -6134333.144203756 6.938578909615504e-10
          -6218550.117015854 -6218550.117015854 -6218550.117015854 1.3067802176399396e-10 -6223943.677412255 -6223943.677412253
          -6223943.677412251 -8.534021318160334e-10 -6228926.561624488 -6228926.561624488 -6228926.561624488 8.037100220059192e-11
          -6243333.987612602 -6243333.987612602 -6243333.987612602 6.833156577923927e-11 -6343373.539702824 -6343373.539702825
          -6343373.539702827 -2.4860576328380427e-10 -4747581.77762687 -4747581.777626875 -4747581.777626875 -2.2868944576445036e-11
          -5844946.367437688 -5844946.367437688 -5844946.367437688 -7.60581508524143e-10 -6494418.960698845 -6494418.960698843
          -6494418.960698843 -3.5101352152939577e-10 -6485164.309778335 -6485164.309778333 -6485164.309778333 9.89790103586303e-11
          -6195449.982867546 -6195449.9828675445 -6195449.982867546 5.2241636827612097e-11 -5252904.004719994 -5252904.004719997
          -5252904.004719997 -9.307664473250152e-11 -5246850.366999047 -5246850.366999043 -5246850.366999043 1.324275596945657e-10
          -4619611.098847463 -4619611.098847466 -4619611.098847465 1.06359475674624e-11 -4363374.466060555 -4363374.466060552
          -4363374.466060551 -5.5286698033242325e-11 -4387828.030589027 -4387828.030589027 -4387828.030589028 -2.9780131627087804e-11
          -5218061.838843359 -5218061.838843359 -5218061.838843359 5.458336691977733e-11 -4894407.871110396 -4894407.871110394
          -4894407.871110395 4.563298894147937e-13 -4617676.122349383 -4617676.122349381 -4617676.122349382 -8.965037623462139e-12
          -4897524.47015997 -4897524.470159966 -4897524.470159967 -5.5576095840329144e-12 -5093440.104706926 -5093440.104706926
          -5093440.104706926 8.224076484854507e-11 -5212020.7003677385 -5212020.700367738 -5212020.700367738 -8.637679923943026e-11
          -4880672.118815912 -4880672.118815914 -4880672.118815914 -6.532434179057194e-11 -4349507.917780984 -4349507.917780989
          -4349507.917780988 8.455906650674118e-12 -4435254.528582976 -4435254.5285829725 -4435254.528582973 2.8456317190043322e-11
          -4507873.15903645 -4507873.159036451 -4507873.15903645 -9.746312245806031e-11
          <InformationKey name="L2_NORM_RANGE" location="vtkDataArray" length="2">
            <Value index="0">
              7533568.7015
            </Value>
            <Value index="1">
              23934777.097
            </Value>
          </InformationKey>
        </DataArray>
        <DataArray type="Float64" Name="temperature" format="ascii" RangeMin="273.15" RangeMax="310">
          310 310 310 310 310 310
          310 310 310 310 310 273.15
          273.15 273.15 273.15 273.15 273.15 273.15
          273.15 273.15 273.15 273.15 273.15 273.15
          273.15 273.15 273.15 273.15 273.15 273.15
          273.15 273.15 273.15 273.15 273.15 273.15
          273.15 273.15 273.15 273.15 273.15 273.15
          273.15 273.15 273.15 273.15 273.15 273.15
          273.15 273.15 273.15 273.15 273.15 273.15
          273.15 273.15 273.15 273.15 273.15 273.15
          273.15 273.15 273.15 273.15 273.15 273.15
          273.15 273.15 273.15 273.15 273.15 273.15
          273.15 273.15 273.15 273.15 273.15 273.15
          273.15 273.15 273.15 273.15
        </DataArray>
        <DataArray type="Float64" Name="temperature_interpolated" format="ascii" RangeMin="273.15" RangeMax="273.15">
          273.15 273.15 273.15 273.15 273.15 273.15
          273.15 273.15 273.15 273.15 273.15 273.15
          273.15 273.15 273.15 273.15 273.15 273.15
          273.15 273.15 273.15 273.15 273.15 273.15
          273.15 273.15 273.15 273.15 273.15 273.15
          273.15 273.15 273.15 273.15 273.15 273.15
          273.15 273.15 273.15 273.15 273.15 273.15
          273.15 273.15 273.15 273.15 273.15 273.15
          273.15 273.15 273.15 273.15 273.15 273.15
          273.15 273.15 273.15 273.15 273.15 273.15
          273.15 273.15 273.15 273.15 273.15 273.15
          273.15 273.15 273.15 273.15 273.15 273.15
          273.15 273.15 273.15 273.15 273.15 273.15
          273.15 273.15 273.15 273.15
        </DataArray>
      </PointData>
      <CellData>
        <DataArray type="UInt8" Name="vtkGhostType" format="ascii" RangeMin="0" RangeMax="0">
          0 0 0 0 0 0
          0 0 0 0 0 0
          0 0 0 0 0 0
          0 0 0 0 0 0
          0 0 0 0 0 0
          0 0 0 0 0 0
          0 0 0 0 0 0
          0 0 0 0 0 0
          0 0 0 0 0 0
          0 0 0 0 0 0
          0 0 0 0
        </DataArray>
      </CellData>
      <Points>
        <DataArray type="Float64" Name="Points" NumberOfComponents="3" format="ascii" RangeMin="0" RangeMax="1.0770329614265202">