<?xml version="1.0"?>
<VTKFile type="UnstructuredGrid" version="0.1" byte_order="LittleEndian" header_type="UInt32">
  <UnstructuredGrid>
    <FieldData>
      <DataArray type="Int8" Name="IntegrationPointMetaData" NumberOfTuples="97" format="ascii" RangeMin="34" RangeMax="125">
        123 34 105 110 116 101
        103 114 97 116 105 111
        110 95 112 111 105 110
        116 95 97 114 114 97
        121 115 34 58 91 123
        34 105 110 116 101 103
        114 97 116 105 111 110
        95 111 114 100 101 114
        34 58 50 44 34 110
        97 109 101 34 58 34
        115 105 103 109 97 95
        105 112 34 44 34 110
        117 109 98 101 114 95
        111 102 95 99 111 109
        112 111 110 101 110 116
        115 34 58 54 125 93
        125
      </DataArray>
      <DataArray type="Int8" Name="OGS_VERSION" NumberOfTuples="40" format="ascii" RangeMin="45" RangeMax="121">
        54 46 50 46 48 45
        49 53 45 103 53 51
        56 49 101 101 99 99
        100 46 100 105 114 116
        121 46 50 48 49 57
        48 52 48 49 49 53
        48 52 49 50
      </DataArray>
      <DataArray type="Float64" Name="sigma_ip" NumberOfComponents="6" NumberOfTuples="3456" format="ascii" RangeMin="1999997.027" RangeMax="2000003.2206">
        1414213.1069 0.052479407168 -1414213.9728 -0.46679396423 0.22950474342 0.53416007805
        1414213.2991 0.0053433878347 -1414213.7682 -0.21069810871 -0.00070504367715 0.45759654218
        1414213.9228 0.22081066103 -1414212.8279 0.021817767399 -0.011765634711 0.055549456446
        1414213.2551 0.032878049271 -1414213.7395 -0.38882614573 0.28826783326 0.3558384449
        1414213.715 0.10289927732 -1414213.4407 -0.19723853305 0.19001324053 0.1704554226
        1414214.479 0.36288279065 -1414212.6496 -0.0051432277506 0.23761100369 -0.22770985458
        1414213.1636 -0.062038618489 -1414213.7572 -0.36036932296 0.3174365336 0.33279641817
        1414213.9112 0.12795800355 -1414213.3699 -0.19555621756 0.31531249699 0.034221609653
        1414214.8353 0.43527590571 -1414212.7334 -0.0061477452836 0.38574397831 -0.36443416278
        1414213.3534 0.4051725092 -1414214.227 -0.46543614275 0.12918687979 0.53243897758
        1414213.7924 0.051711522043 -1414213.9459 -0.30240418021 -0.11064260781 0.38407288239
        1414214.7211 0.12652898169 -1414212.7363 -0.12411901019 0.0028136232609 -0.065229362893
        1414213.2914 0.13678386467 -1414213.9551 -0.38769889518 0.28740401739 0.34836152356
        1414213.7923 0.020962577226 -1414213.5703 -0.25481909717 0.18583308004 0.15493455299
        1414214.6554 0.26077873138 -1414212.5002 -0.082598417996 0.36425102309 -0.22672727391
        1414213.0206 -0.12259953309 -1414213.9004 -0.37814373047 0.39530673588 0.3208033712
        1414213.6033 0.0020370264247 -1414213.4174 -0.23768235781 0.39616971244 0.077943224872
        1414214.4207 0.40967002194 -1414212.4924 -0.033792429899 0.60372473071 -0.24045048448
        1414213.1474 0.16448840595 -1414214.8503 -0.25432298176 0.17178088915 0.41629924266
        1414213.6164 -0.46832119097 -1414214.6092 -0.2834485173 -0.10570564369 0.10371557551
        1414214.6332 -0.50717718611 -1414213.2467 -0.25848765781 0.10423006664 -0.48525684149
        1414213.1532 -0.085595802579 -1414214.3176 -0.29794072869 0.34770460171 0.31643851386
        1414213.4782 -0.36028325063 -1414213.9632 -0.32286234872 0.21477997419 0.022552582531
        1414214.2236 -0.11365810141 -1414212.7305 -0.2696098989 0.49598075289 -0.4350208067
        1414212.9811 -0.24235420852 -1414213.9683 -0.42841164284 0.45259386449 0.37433678282
        1414213.182 -0.1561013599 -1414213.5061 -0.41139560884 0.42840650784 0.094776285172
        1414213.6758 0.37882308412 -1414212.4089 -0.29211783041 0.74504771814 -0.23577037317
        1414210.1421 -0.8715905385 -1414215.5722 -0.87112973821 0.36720969119 2.0442693264
        1414211.546 -0.46196493777 -1414214.6181 -0.62305704865 0.39045748355 1.2070520053
        1414212.6332 -0.1958148269 -1414214.0947 -0.45580234495 0.38721182776 0.58314153501
        1414210.9467 -0.69877483184 -1414215.6413 -0.72138919429 0.2699438087 1.8577442923
        1414212.0512 -0.34364990186 -1414214.6152 -0.54008173353 0.30873149503 1.113226862
        1414212.9097 -0.09064628667 -1414213.8793 -0.42129732626 0.33074534405 0.51785598773
        1414211.5532 -0.60239588146 -1414215.7931 -0.54020115119 0.128707835 1.7374819501
        1414212.326 -0.32533200196 -1414214.7828 -0.46033503535 0.2017510226 1.1222179478
        1414212.9233 -0.1090352645 -1414213.9222 -0.42469703619 0.26773998654 0.59194019702
        1414211.2745 -0.16390231511 -1414215.1893 -0.27830088133 0.25974839632 2.0366659532
        1414212.1075 -0.043326420709 -1414214.4892 -0.18232480033 0.33528008935 1.2093525464
        1414212.6181 -0.073257627577 -1414214.3022 -0.15980383194 0.33742548182 0.57432036598
        1414211.6992 0.083576169913 -1414214.8982 -0.3048058624 0.29924174288 1.8481876773
        1414212.4633 0.15229245985 -1414214.1684 -0.26547350725 0.33282208161 1.1374602171
        1414212.9756 0.11185582046 -1414213.8113 -0.28130133416 0.30273572905 0.55485368142
        1414211.8649 0.15241227034 -1414214.7751 -0.27559196747 0.33616602138 1.7047189649
        1414212.5278 0.14570857657 -1414214.1035 -0.32757945644 0.34651061088 1.1471309826
        1414213.0093 0.071206125838 -1414213.664 -0.41643219091 0.30290812341 0.65350362703
        1414212.0698 0.21455691653 -1414215.1957 -0.13708502312 -0.24497664085 1.9420565412
        1414212.6214 0.23739797148 -1414214.4805 -0.030319926438 0.031134138684 1.222180339
        1414212.845 0.10270030642 -1414214.361 0.010352924539 0.18696576318 0.67355973314
        1414211.9139 0.4291878909 -1414214.7336 -0.27002488936 -0.0069989554661 1.660457846
        1414212.6272 0.4028104028 -1414214.0312 -0.20978201979 0.16966921861 1.081053641
        1414213.0829 0.2602483698 -1414213.784 -0.19733646266 0.23577784759 0.60874473106
        1414211.4381 0.36297085276 -1414214.5247 -0.32297450651 0.26981068187 1.4026155846
        1414212.2806 0.26381444326 -1414213.9229 -0.34392997927 0.36575185681 1.0002369102
        1414212.936 0.089827664109 -1414213.6357 -0.39438782831 0.36085310169 0.6407932329
        1414213.2101 -0.032289650902 -1414213.7923 -0.27486810572 0.31030461405 0.33231915538
        1414213.929 0.12036402998 -1414213.4247 -0.19695968004 0.31898379347 -0.019624203984
        1414214.7539 0.29183713681 -1414212.9342 -0.12198676326 0.32384082856 -0.47212674184
        1414213.364 -0.020255188574 -1414213.7024 -0.16659292722 0.25533277489 0.22912137815
        1414214.0577 0.13387574442 -1414213.2838 -0.1521001531 0.33391875059 -0.11033293112
        1414214.89 0.34496215082 -1414212.5803 -0.16505559705 0.4590297742 -0.60951386033
        1414213.523 0.012380619097 -1414213.5437 -0.052558885569 0.2021568956 0.10296255709
        1414214.2147 0.17276527191 -1414213.0729 -0.087167701076 0.3395713235 -0.23141330514
        1414215.0774 0.42824144108 -1414212.155 -0.17373744226 0.57385799221 -0.78468322373
        1414213.1743 0.069218384568 -1414213.9524 -0.14295308529 0.43502201276 0.32615603022
        1414213.5087 0.020647876809 -1414213.5503 -0.18008255489 0.37996406784 0.037512927728
        1414213.8601 -0.14742389228 -1414213.1851 -0.27549893719 0.21569894704 -0.38231919004
        1414213.1462 -0.055275356281 -1414214.0515 -0.05245558817 0.38373804129 0.24969577429
        1414213.5089 -0.095992162707 -1414213.5565 -0.076250701309 0.34502426086 0.014443520399
        1414213.9212 -0.21807418551 -1414212.9364 -0.18284543796 0.2474504982 -0.41116518711
        1414213.1233 -0.13721584732 -1414214.0769 0.041973841213 0.32895035464 0.14715040695
        1414213.5375 -0.16530248767 -1414213.4877 0.045827144909 0.29550239463 -0.042121600393
        1414214.0336 -0.23661829391 -1414212.6112 -0.057631881852 0.25354164389 -0.48091749791
        1414213.2581 0.20593553229 -1414213.9658 -0.13162292063 0.51565365786 0.39444830045
        1414213.2766 0.10044982063 -1414213.4491 -0.22710173015 0.46172103487 0.17241360714
        1414213.223 -0.26285783653 -1414213.1292 -0.4362188592 0.19319620305 -0.21143993706
        1414213.0878 0.050611044106 -1414214.2206 -0.084826250688 0.4466640883 0.34400889083
        1414213.1882 -0.040644515277 -1414213.569 -0.090220699092 0.35551299704 0.21626684924
        1414213.2489 -0.35158597652 -1414212.9522 -0.23376617719 0.10011689214 -0.13246148571
        1414212.9229 -0.040208288148 -1414214.3966 -0.035924586282 0.36887112268 0.26436030792
        1414213.1281 -0.11245723208 -1414213.6089 0.063079390751 0.22942322293 0.2235003109
        1414213.3262 -0.36625603153 -1414212.6938 -0.00058037008885 -0.023922502647 -0.097513413976
        1414211.595 -0.71409199623 -1414215.9793 -0.53287017001 -0.080841589836 1.5682328827
        1414212.3876 -0.36669203863 -1414214.9358 -0.41375104458 0.060537182329 1.0457693528
        1414213.0017 -0.076586891722 -1414213.9857 -0.34570891543 0.20871794506 0.59776010762
        1414211.7801 -0.62764431039 -1414215.6081 -0.3881376135 -0.14218362658 1.3444638207
        1414212.597 -0.29353696847 -1414214.6731 -0.27495941053 -0.0056649289324 0.85682257359
        1414213.1897 -0.027389012277 -1414213.8404 -0.22221085649 0.13978390949 0.46018151864
        1414211.8136 -0.57728048725 -1414215.28 -0.268285152 -0.20435433201 1.1786136358
        1414212.7185 -0.23434238584 -1414214.4044 -0.1482520007 -0.070504549555 0.69147063264
        1414213.3535 0.029971752432 -1414213.6398 -0.098001149243 0.074403523395 0.31187373289
        1414211.7199 -0.15398876369 -1414215.2557 -0.34113060214 0.014774221144 1.4692505586
        1414212.5973 0.08350731316 -1414214.4799 -0.24500891933 0.12763686975 1.0315002896
        1414213.2554 0.23792001905 -1414213.8184 -0.22507976003 0.23617765975 0.65860005802
        1414211.9174 -0.19827445122 -1414215.2108 -0.24244139934 -0.071418061176 1.2252915388
[...]
      <PointData>
        <DataArray type="Float64" Name="MaterialForces" NumberOfComponents="3" format="ascii" RangeMin="8.9519049843e-06" RangeMax="626.44902224">
          0.00019282427922 -0.00030222433645 -0.00013078769932 -177.18577287 -8.26449538e-05 177.18573336
          -25.948272787 88.592847319 151.23757831 125.28927526 177.18558452 125.28936566
          156.61180418 -221.48274839 156.61188363 -10.287040263 -110.74127991 166.89874323
          26.178861294 -11.074207081 114.7717588 140.95051317 -22.148484758 140.95068378
          -156.61179836 221.48245877 -156.61179698 -166.89874087 110.74114137 10.287081263
          -52.127083914 99.667036589 36.465884764 -15.661345921 199.33415041 -15.661129174
          0.00054866660086 -0.00015009936436 -0.00038941991107 -177.18569747 -0.00011348312682 177.18572183
          156.6120725 -221.48258335 156.61163602 -10.286977963 -110.7412396 166.89869331
          -156.61165021 221.48239469 -156.61186427 -166.89873798 110.74115153 10.286995792
          0.00034176126645 -4.7904978061e-05 -0.0002073228903 -177.18565555 -4.6750274567e-05 177.18568558
          156.61210073 -221.48244406 156.61158883 -10.286956239 -110.74120889 166.89871516
          -156.61165931 221.48244493 -156.61192378 -166.89875689 110.74115819 10.287041581
          0.00017868354641 1.1651759689e-05 -0.00025569420059 -177.18571341 2.595298028e-06 177.18567121
          156.61181434 -221.48248938 156.61193169 -10.287007882 -110.74117827 166.89875478
          -156.61195438 221.48248004 -156.61184131 -166.8987771 110.74117151 10.287000379
          8.889206752e-05 -0.00038668701374 -0.00014250323356 125.28934951 177.18561253 125.28928349
          156.61165935 -221.48282348 156.61198676 140.9504769 -22.148571612 140.95075841
          -156.61206085 221.48261629 -156.61192141 -15.66120484 199.33427004 -15.661409364
          -1.1027463838e-05 -0.00016057894837 -0.0001386261048 156.61155158 -221.48260694 156.61196106
          -156.61197997 221.48255584 -156.61183575 -0.00034123377471 -0.00021409109093 4.8360151425e-05
          156.61150915 -221.48256416 156.61198425 -156.6120711 221.48237885 -156.61179898
          -0.00061853858465 1.9320630429e-05 0.0004831355609 156.61139207 -221.48243911 156.61223882
          -156.61230299 221.48245253 -156.61145908 -6.6181883774e-05 -0.00032640225134 -0.00032378857908
          125.28950951 177.18545018 125.28929735 156.61189666 -221.48300597 156.61188048
          140.95078566 -22.14870232 140.95080906 -156.61206399 221.48272838 -156.61207305
          -15.661293117 199.33433572 -15.661312464 -0.00020903832456 -0.00033231785396 -0.00035307630982
          156.6114517 -221.48265561 156.61180486 -156.61182499 221.48247145 -156.61201092
          4.5381886377e-05 -0.00037372956566 -0.00063075610132 156.61136852 -221.48246367 156.61169542
          -156.61178156 221.48219697 -156.61184165 0.00041361053079 2.0783756867e-05 -0.0005568331446
          156.6115775 -221.48216527 156.61156393 -156.61162736 221.48218068 -156.61165487
          3.2373437914e-05 0.00012223938387 -0.00046955214576 125.28969908 177.18555807 125.28953289
          156.61201408 -221.48288756 156.61192185 140.9508766 -22.148657134 140.9508141
          -156.61212328 221.48293941 -156.61214757 -15.66128754 199.33420221 -15.661152301
          0.00018346770115 -6.9904324677e-05 -0.0010367497153 156.61192268 -221.48286831 156.61157364
          -156.61206519 221.48281057 -156.61227272 0.00029209022883 -0.00015962420483 -0.00067869955704
          156.6117297 -221.4827769 156.61173448 -156.6117817 221.48265697 -156.61201323
          0.0003210264763 1.4360790894e-05 -0.00041527970394 156.61185565 -221.48265334 156.61167058
          -156.61170318 221.48266223 -156.61191505 0.00015732865521 6.8592737581e-05 -0.00042942744085
          -177.18572048 5.0865792867e-05 177.18560762 156.61190866 -221.48245527 156.61163275
          -10.287046093 -110.74116465 166.89873107 -156.61159718 221.48243342 -156.61213385
          -166.89873358 110.74120099 10.286946753 0.00032660246843 0.00016939377871 -0.00060995042845
          -177.18575888 0.00011715413862 177.18565346 156.61183998 -221.48240524 156.61164031
          -10.28700283 -110.74115699 166.89871427 -156.61164922 221.48257278 -156.61209519
          -166.89871202 110.74123101 10.286970397 7.1702119055e-05 0.00032641916279 -0.00028806786217
          -177.18577132 8.8128902316e-05 177.18572543 156.61176992 -221.48246599 156.61177261
          -10.287092307 -110.7411445 166.89871557 -156.61189152 221.48274632 -156.61184513
          -166.89875928 110.7412739 10.287030649 -125.28937062 -177.18556004 -125.28935025
          -151.23759349 -88.592840308 25.948249247 15.661125124 -199.33415031 15.661322634
          -36.465887436 -99.667036404 52.127072115 -140.95067013 22.148488306 -140.950552
          -114.77176952 11.074207948 -26.17886359 -0.00014806742663 0.00024953055227 0.0002027760312
          156.61175082 -221.48236935 156.61200888 -156.61203175 221.48257845 -156.61158089
          4.9311947983e-05 0.00019313042772 -0.00010915069993 156.61179274 -221.48254974 156.61193258
          -156.6120036 221.48262251 -156.61161907 6.3351327132e-05 0.0004219580609 -0.00025432254043
          156.6118826 -221.48261068 156.61199451 -156.61202288 221.48284667 -156.61175181
          -125.28931434 -177.18558967 -125.28945753 15.661395879 -199.33426799 15.661166562
          -140.95077312 22.148585114 -140.950544 0.00050605515387 0.00041346983652 -0.00018859180121
          156.61177693 -221.48218635 156.61172286 -156.6117531 221.48248212 -156.61145024
          0.00024480597341 0.00036966144101 6.7596232242e-05 156.61195716 -221.48246555 156.61177291
          -156.61185696 221.48267692 -156.61153757 0.0002110852297 0.00036287795905 -7.8303111906e-05
          156.61201962 -221.48272488 156.61201358 -156.61193649 221.48303254 -156.61198599
          -125.28936157 -177.18542831 -125.28958208 15.661286922 -199.33433523 15.661270465
          -140.95084713 22.148716997 -140.95083388 0.00059076292295 0.00018901035277 -0.00040276622724
          156.61196124 -221.48265176 156.61174567 -156.61176846 221.48279022 -156.6118016
          0.00093830868875 0.00010012608115 -0.00029238205661 156.61221948 -221.48280886 156.61203416
          -156.61161691 221.48288663 -156.61199714 0.00034887560226 -9.3130670592e-05 -0.00010831268536
          156.61208781 -221.48293977 156.61211 -156.61198049 221.48291058 -156.61207212
          -125.28960848 -177.18554083 -125.28972818 15.661122199 -199.33420347 15.661284197
          -140.95086025 22.148669633 -140.9509005 -0.0004676913548 0.00099407362363 -2.7153541467e-05
          125.28925708 177.18583631 125.28980623 156.61191264 -221.482485 156.6121805
          140.95061447 -22.148475732 140.95090199 -156.6123768 221.48311844 -156.61183707
          -15.661437786 199.33405401 -15.660974906 -9.8394235646e-05 0.00071081059033 -0.0008123174363
          156.61197047 -221.4828536 156.61201155 -156.61228128 221.48320662 -156.61211645
          0.00019222830651 0.000307402927 -0.00077319777392 156.61225653 -221.48314919 156.61191016
          -156.61212043 221.48323431 -156.61230265 0.0006925451201 4.2358339662e-06 -0.00071704625908
          156.61248533 -221.483217 156.61184926 -156.61184442 221.48321583 -156.6125122
          -0.00039438729849 0.0014709069864 0.0002272035328 125.28936509 177.18601225 125.2895407
          156.61189962 -221.48196707 156.61214738 140.95072648 -22.148352899 140.9509554
          -156.6121321 221.48310086 -156.61168413 -15.661224563 199.33404359 -15.661173699
          -0.00056106563576 0.0012721652198 -0.00023923077157 156.61220858 -221.48273791 156.61202129
          -156.61226757 221.48349131 -156.6120755 -0.00019248741384 0.00064881825798 -0.00016586713267
          156.61231243 -221.48320842 156.6122687 -156.61223471 221.48354351 -156.61226045
          0.00022176105397 -5.7143257273e-06 -0.00018185324915 156.61227929 -221.48348316 156.61239196
          -156.61235828 221.48347245 -156.61227057 -0.00022356170298 0.0011643385282 0.00021074464351
          125.28954286 177.18561441 125.28955102 156.61177829 -221.48219014 156.61218178
          140.95077117 -22.148482273 140.95081383 -156.61198301 221.48302167 -156.61175909
          -15.66110558 199.33400879 -15.661245324 -0.0006028307157 0.0010691723362 -0.00012440805466
          156.61184298 -221.48275312 156.61222007 -156.61199137 221.48329881 -156.61212083
          -0.00032365463873 0.00065054049908 4.3334939747e-05 156.61192521 -221.48314683 156.61237256
          -156.6120918 221.4835089 -156.61231108 -1.5528131804e-05 -1.4023577846e-05 0.00010583410781
          156.61225818 -221.48339816 156.61212852 -156.61207335 221.48338041 -156.61222194
          177.18619833 0.00058131179001 -177.18636788 151.23805584 88.592893239 -25.948409322
          166.89908677 -110.74109803 -10.287153547 114.7718214 -11.07422109 26.178885597
          10.287309053 110.74154195 -166.89927911 36.466005149 99.666974218 -52.127153203
          177.18607711 0.00039523620342 -177.18634703 166.89898083 -110.74137675 -10.286966892
          10.287143034 110.74156575 -166.89918257 177.18621166 0.000320490285 -177.18637553
          166.89907962 -110.74156166 -10.287025468 10.287119845 110.74165537 -166.89918619
          177.1862907 1.3881951153e-05 -177.18622994 166.8992642 -110.74165361 -10.287165746
          10.287199413 110.7416655 -166.89923621 0.00075127006585 -0.00029736577193 -0.00023647353433
          156.61228015 -221.48323808 156.61211899 -156.61190754 221.48315236 -156.61229636
          0.00076265031016 -0.00069930290164 6.8211651893e-05 156.61208352 -221.48321292 156.61228893
          -156.61202665 221.48286166 -156.61200472 -1.8783102455e-05 -0.00098395582837 0.00045548231681
          156.61181141 -221.48312668 156.61239308 -156.61219956 221.48249725 -156.61193668
          -125.28982951 -177.18582865 -125.28926766 15.660965102 -199.33405845 15.661441557
          -140.95091678 22.148482815 -140.95062665 0.00020135402913 -0.0006593597197 0.00023519554537
          156.61226706 -221.48355632 156.61227158 -156.61223773 221.48320106 -156.61230388
          0.00026024552222 -0.0012829011735 0.00061658417617 156.61207528 -221.48350604 156.61231209
          -156.6119987 221.48273348 -156.61219459 -0.00017434914688 -0.0014838266435 0.00043602636778
          156.61170361 -221.48311752 156.61216946 -156.61211379 221.48196574 -156.61189209
          -125.28949776 -177.18601581 -125.28936215 15.661189753 -199.33405144 15.66123178
          -140.9509299 22.148353566 -140.95072869 4.1981025987e-05 -0.00067921384701 0.00043408179528
          156.61234176 -221.48352876 156.61215749 -156.61231624 221.48313096 -156.61187998
          0.00024486557629 -0.0011000119916 0.00069374264936 156.61216468 -221.48332019 156.61204936
          -156.61214185 221.48273798 -156.61181005 -5.1756113525e-05 -0.0011968161944 0.00028896533543
          156.61182137 -221.48304456 156.61203089 -156.61208496 221.48217774 -156.61176088
          -125.28945027 -177.18562756 -125.28953154 15.66128204 -199.33401904 15.661115873
          -140.95075018 22.148477787 -140.95076964 177.18643206 -0.00029411197402 -177.1861385
          166.89920962 -110.74164417 -10.287080575 10.287058968 110.74157364 -166.89904513
          177.18643997 -0.00037154414556 -177.18602637 166.89922166 -110.74155693 -10.287113079
          10.287020024 110.74138991 -166.89895968 177.18649145 -0.00055997974882 -177.18616446
          166.89933132 -110.74153433 -10.287285631 10.287222556 110.74111202 -166.89907626
          25.948479759 -88.592883587 -151.23804786 52.127180043 -99.666971026 -36.465999587
          -26.17884084 11.074227963 -114.77182034 51.896441741 -177.1857637 -302.47519671
          20.574276154 221.48242354 -333.79772036 -281.90090286 44.296629174 -281.90134832
          51.896450737 -177.18577882 -302.47497421 354.37168956 4.0272145043e-05 -354.37155279
          354.37158514 7.8233773138e-05 -354.37156738 20.574243789 221.48242743 -333.79763909
          -250.57872929 -354.37163086 -250.57850966 -313.22337916 442.96488843 -313.22349985
          -250.57894263 -354.37135658 -250.57889106 -313.22327706 442.96509655 -313.22367625
          333.79760331 -221.48231727 -20.574292239 -281.90111808 44.296845636 -281.90126946
          354.37150324 3.4286777577e-05 -354.3715168 354.37174249 6.1496867147e-05 -354.3716784
          31.322439117 -398.66805387 31.32228801 354.37155971 9.6022067765e-05 -354.37154512
          20.574243563 221.48236275 -333.79760929 0.00011180459938 4.8575570801e-05 -6.188747227e-05
          -250.57860186 -354.37162807 -250.57865028 -313.22328903 442.96478397 -313.22349279
          0.00037674359166 0.00019197654069 -8.0608721305e-05 -0.00035705204311 0.00042369840085 -3.4569814829e-05
          -313.22336306 442.96497139 -313.2236498 -250.57889033 -354.37144095 -250.57899126
          333.79767548 -221.48232005 -20.574214319 -313.2233954 442.9650463 -313.223869
          354.37155041 7.0021953888e-05 -354.37148068 -250.57880394 -354.37126069 -250.5791163
          354.37168121 3.782489992e-05 -354.3716299 313.22350486 -442.96468798 313.22320313
          -313.22329096 442.96534244 -313.22387146 354.37153288 8.3225403387e-05 -354.37153713
          20.574285946 221.48229867 -333.79766154 0.00010702206043 0.00013670540671 -0.00013510599501
          313.22364795 -442.96484685 313.2233354 -281.90133116 44.297094158 -281.90146211
          -0.00011693820508 -6.6535446933e-05 0.00017559982922 -313.22310225 442.96470679 -313.22364882
          -9.9512055741e-05 0.00012510665306 5.2705537996e-06 31.322520354 -398.66830566 31.322304127
          -0.00053970378735 0.00024872536792 0.00020953913742 -313.22354344 442.96484783 -313.22364032
          -0.00016950781259 0.00017608949785 0.0001548790778 -250.57904238 -354.37171213 -250.57849815
          333.79762095 -221.48232127 -20.574235801 -313.22347274 442.96505413 -313.22377364
          0.00015015952485 0.00039623389188 3.9067123907e-05 354.37157101 3.3834275825e-05 -354.37151029
          -0.00021982674891 0.0003341962248 -5.5662493878e-05 354.37167112 -2.2923871086e-06 -354.37166862
          313.22367134 -442.96466156 313.22317113 -313.22344083 442.96518074 -313.22371853
          -250.57908282 -354.37134217 -250.57914765 354.37153701 1.9268021106e-05 -354.37155892
          20.574326247 221.48233304 -333.79768877 -7.8600717757e-06 7.1736219574e-05 -5.282986308e-05
          313.2237416 -442.9649057 313.22333751 -313.22354284 442.96528407 -313.22374276
          -0.00034223221096 6.183462466e-05 0.00041521809402 -250.57921049 -354.3710007 -250.57924258
          -313.223247 442.96469489 -313.22358234 -0.00018389262189 -4.7431925054e-07 0.00011521141158
          313.22389881 -442.96508657 313.22336126 -313.22374421 442.96560596 -313.22381653
          -0.00043792175262 0.00015406746897 0.00023338005707 -313.22336761 442.96487245 -313.22376416
          -6.7282957161e-07 8.819657009e-05 -6.1975718722e-05 313.22410459 -442.96519044 313.22353715
          -281.90155845 44.297260697 -281.90160104 -5.4530219181e-05 4.6920895898e-06 0.00042681144623
          333.79764638 -221.48229336 -20.574271649 -313.22346422 442.96509986 -313.22383023
          6.5167504314e-05 0.00018338049918 -5.4171549095e-06 31.322497985 -398.6684489 31.322422047
          354.37160629 -3.1813715168e-05 -354.37145346 0.00017635124135 1.1109377766e-05 -7.3522491675e-05
          354.37172569 8.2234553531e-06 -354.37160192 313.22363931 -442.96463961 313.22314533
          -313.22343014 442.96512925 -313.22373476 0.00010536368723 0.00035243426941 -1.6052536068e-05
          354.37158721 -4.4069963678e-05 -354.37151753 -250.57905733 -354.37158126 -250.57875577
          20.574290255 221.48235807 -333.79765957 -2.2817047068e-05 -9.5031548852e-07 2.3130851503e-05
          313.22368367 -442.96486018 313.22336415 -313.22340499 442.96510713 -313.22389347
          3.9656764141e-05 0.00040877945119 0.00031608081377 -0.00026988514914 -8.5190932367e-05 0.00035862433793
          1.6475575535e-06 0.00036857470874 -5.0551203856e-05 -313.22316143 442.96469118 -313.22369215
          -0.00013833011086 -1.1455600315e-05 4.6983938091e-06 313.22386759 -442.9650195 313.22343123
          -313.22339437 442.96533625 -313.22394462 -250.57925147 -354.37132343 -250.5790928
          -0.00042285931867 0.00018312453247 5.0131969147e-05 -313.22326669 442.96490368 -313.2238985
          1.7715636886e-06 1.1312394975e-05 -0.00014750736864 313.22386501 -442.96507086 313.2234852
          -313.22370627 442.96563649 -313.22414631 -7.354815191e-05 -3.71078726e-05 0.00015876586565
          -250.57923457 -354.37112799 -250.57935648 333.79761299 -221.48225825 -20.574226548
          -313.22357975 442.96507908 -313.22380159 0.00026642600705 0.00017660312753 -0.0002527099598
          313.22397835 -442.96525626 313.22365809 -313.22420664 442.96577468 -313.22395504
          354.37157838 -9.4002398043e-05 -354.37144306 0.00021299300243 2.2013874457e-05 -7.6570713816e-05
          354.37168479 -3.2077438789e-05 -354.37161017 313.22352302 -442.96464026 313.22323055
          -313.22328754 442.96504418 -313.22377149 -7.5410033787e-05 0.00026281504237 -8.5501383012e-05
          313.22406334 -442.96548569 313.22385776 -281.90164256 44.297359266 -281.9017513
          354.37155621 -7.9360877521e-05 -354.37149715 0.00010844684091 -0.00013735249911 0.00019330903933
          20.574272946 221.48235226 -333.79771262 5.0393225933e-05 -7.2635682301e-05 1.2365804423e-05
          313.22388873 -442.96485865 313.22327797 -313.22348604 442.96505649 -313.2235665
          -9.9448631335e-05 0.00050466284702 9.6118769648e-05 31.322382091 -398.66841908 31.322485007
          -3.9496937845e-06 -0.00024801241042 0.00047044801516 0.00042847778315 -0.00018477296905 0.00016949206906
          -313.22317899 442.96470721 -313.22372589 5.4087313899e-06 5.198349524e-05 0.00018863033097
          313.22393308 -442.9651297 313.22337826 -313.22333052 442.9652908 -313.22368325
          -5.1811400169e-05 0.00018032619822 0.00013285841578 -0.00032341314938 2.8320735339e-05 0.00031463594212
          -250.57928055 -354.37115034 -250.57903817 -313.22335317 442.9648992 -313.22369466
          -0.00033860677632 1.2331205994e-06 0.00034041403421 313.22390709 -442.96503274 313.22351366
          -313.22374923 442.96543267 -313.22373108 -0.00021462701115 -0.00016435061244 0.00029217148182
          8.4437867827e-06 6.9302764473e-05 0.00013291846506 3.201834906e-05 1.638915154e-05 4.3997066996e-05
          333.79756031 -221.48232042 -20.574186929 -313.22336273 442.96513858 -313.22395126
          0.00034937683351 0.00034440877189 -4.4842755017e-05 313.22401745 -442.96523902 313.22351973
          -313.2238713 442.9658235 -313.22410344 -250.57938054 -354.37118745 -250.57890412
          354.37158622 -0.00010639739526 -354.37147106 0.00039573459422 -0.00018420273668 -0.00026008983849
          354.37173102 -5.5536687967e-05 -354.37166955 313.2235886 -442.96464883 313.22308187
          -313.2234474 442.96488613 -313.22397817 -0.00010938073729 0.00031726260558 0.00022610955159
          313.22405085 -442.96544076 313.22377642 -313.22442663 442.96586173 -313.22404726
          354.37158557 -4.7526950965e-05 -354.37144155 -0.00035575470979 0.00032260327043 0.00040140783398
          -250.57897703 -354.37125935 -250.57900392 20.574357537 221.48234374 -333.79763285
          0.00013960503219 -0.00013818089947 -0.00011032337039 313.22373176 -442.96482596 313.22339643
          -313.22330352 442.96484394 -313.22366157 0.00020622323375 0.00060446384219 0.0001590074088
          313.22418521 -442.96564887 313.22380106 -313.22396551 442.9655691 -313.22442802
          -0.00019724794535 -0.00021460528714 0.00048679280781 0.00045426811769 -0.00045477493475 0.00042927892468