<?xml version="1.0" encoding="UTF-8"?>
<VTKFile type="UnstructuredGrid" version="0.1" byte_order="LittleEndian">
    <UnstructuredGrid>
        <Piece NumberOfPoints="342" NumberOfCells="170">
            <PointData> </PointData>
            <CellData>
                <DataArray type="UInt32" Name="MaterialIDs" format="ascii">
0 
0 
0 
0 
0 
0 
0 
0 
0 
0 
0 
0 
0 
0 
0 
0 
0 
0 
0 
0 
0 
0 
0 
0 
0 
0 
0 
0 
0 
0 
0 
0 
0 
0 
0 
0 
0 
0 
0 
0 
0 
0 
0 
0 
0 
0 
0 
0 
0 
0 
0 
0 
0 
0 
0 
0 
0 
0 
0 
0 
0 
0 
0 
0 
0 
0 
0 
0 
0 
0 
0 
0 
0 
0 
0 
0 
0 
0 
0 
0 
0 
0 
0 
0 
0 
0 
0 
0 
0 
0 
0 
0 
0 
0 
0 
0 
0 
0 
0 
0 
0 
0 
0 
0 
0 
0 
0 
0 
0 
0 
0 
0 
0 
0 
0 
0 
0 
0 
0 
0 
0 
0 
0 
0 
0 
0 
0 
0 
0 
0 
0 
0 
0 
0 
0 
0 
0 
0 
0 
0 
0 
0 
0 
0 
0 
0 
0 
0 
0 
0 
0 
0 
0 
0 
0 
0 
0 
0 
0 
0 
0 
0 
0 
0 
0 
0 
0 
0 
0 
0 
 </DataArray>
            </CellData>
            <Points>
                <DataArray type="Float64" Name="Points" NumberOfComponents="3" format="ascii">
1000.000000 0.000000 0.000000
1000.000000 1000.000000 0.000000
1020.000000 0.000000 0.000000
1020.000000 1000.000000 0.000000
1053.333333 0.000000 0.000000
1053.333333 1000.000000 0.000000
1080.000000 0.000000 0.000000
1080.000000 1000.000000 0.000000
1100.127458 0.000000 0.000000
1100.127458 1000.000000 0.000000
1133.673222 0.000000 0.000000
1133.673222 1000.000000 0.000000
1160.509833 0.000000 0.000000
1160.509833 1000.000000 0.000000
1180.765561 0.000000 0.000000
1180.765561 1000.000000 0.000000
1214.525109 0.000000 0.000000
1214.525109 1000.000000 0.000000
1241.532747 0.000000 0.000000
1241.532747 1000.000000 0.000000
1261.917564 0.000000 0.000000
1261.917564 1000.000000 0.000000
1295.892258 0.000000 0.000000
1295.892258 1000.000000 0.000000
1323.072013 0.000000 0.000000
1323.072013 1000.000000 0.000000
1343.586740 0.000000 0.000000
1343.586740 1000.000000 0.000000
1377.777952 0.000000 0.000000
1377.777952 1000.000000 0.000000
1405.130921 0.000000 0.000000
1405.130921 1000.000000 0.000000
1425.776387 0.000000 0.000000
1425.776387 1000.000000 0.000000
1460.185496 0.000000 0.000000
1460.185496 1000.000000 0.000000
1487.712784 0.000000 0.000000
1487.712784 1000.000000 0.000000
1508.489821 0.000000 0.000000
1508.489821 1000.000000 0.000000
1543.118216 0.000000 0.000000
1543.118216 1000.000000 0.000000
1570.820932 0.000000 0.000000
1570.820932 1000.000000 0.000000
1591.730380 0.000000 0.000000
1591.730380 1000.000000 0.000000
1626.579459 0.000000 0.000000
1626.579459 1000.000000 0.000000
1654.458722 0.000000 0.000000
1654.458722 1000.000000 0.000000
1675.501423 0.000000 0.000000
1675.501423 1000.000000 0.000000
1710.572592 0.000000 0.000000
1710.572592 1000.000000 0.000000
1738.629527 0.000000 0.000000
1738.629527 1000.000000 0.000000
1759.806332 0.000000 0.000000
1759.806332 1000.000000 0.000000
1795.101006 0.000000 0.000000
1795.101006 1000.000000 0.000000
1823.336745 0.000000 0.000000
1823.336745 1000.000000 0.000000
1908.583795 0.000000 0.000000
1908.583795 1000.000000 0.000000
1994.374116 0.000000 0.000000
1994.374116 1000.000000 0.000000
2080.711171 0.000000 0.000000
2080.711171 1000.000000 0.000000
2167.598444 0.000000 0.000000
2167.598444 1000.000000 0.000000
2255.039442 0.000000 0.000000
2255.039442 1000.000000 0.000000
2343.037693 0.000000 0.000000
2343.037693 1000.000000 0.000000
2431.596749 0.000000 0.000000
2431.596749 1000.000000 0.000000
2520.720184 0.000000 0.000000
2520.720184 1000.000000 0.000000
2610.411594 0.000000 0.000000
2610.411594 1000.000000 0.000000
2700.674599 0.000000 0.000000
2700.674599 1000.000000 0.000000
2791.512843 0.000000 0.000000
2791.512843 1000.000000 0.000000
2882.929990 0.000000 0.000000
2882.929990 1000.000000 0.000000
2974.929730 0.000000 0.000000
2974.929730 1000.000000 0.000000
3067.515776 0.000000 0.000000
3067.515776 1000.000000 0.000000
3160.691864 0.000000 0.000000
3160.691864 1000.000000 0.000000
3254.461755 0.000000 0.000000
3254.461755 1000.000000 0.000000
3348.829233 0.000000 0.000000
3348.829233 1000.000000 0.000000
3443.798106 0.000000 0.000000
3443.798106 1000.000000 0.000000
3539.372207 0.000000 0.000000
3539.372207 1000.000000 0.000000
3635.555393 0.000000 0.000000
3635.555393 1000.000000 0.000000
3732.351546 0.000000 0.000000
3732.351546 1000.000000 0.000000
3829.764572 0.000000 0.000000
3829.764572 1000.000000 0.000000
3927.798402 0.000000 0.000000
3927.798402 1000.000000 0.000000
4026.456992 0.000000 0.000000
4026.456992 1000.000000 0.000000
4125.744325 0.000000 0.000000
4125.744325 1000.000000 0.000000
4225.664407 0.000000 0.000000
4225.664407 1000.000000 0.000000
4326.221270 0.000000 0.000000
4326.221270 1000.000000 0.000000
4427.418973 0.000000 0.000000
4427.418973 1000.000000 0.000000
4529.261600 0.000000 0.000000
4529.261600 1000.000000 0.000000
4631.753260 0.000000 0.000000
4631.753260 1000.000000 0.000000
4734.898090 0.000000 0.000000
4734.898090 1000.000000 0.000000
4838.700253 0.000000 0.000000
4838.700253 1000.000000 0.000000
4943.163938 0.000000 0.000000
4943.163938 1000.000000 0.000000
5048.293360 0.000000 0.000000
5048.293360 1000.000000 0.000000
5154.092762 0.000000 0.000000
5154.092762 1000.000000 0.000000
5260.566414 0.000000 0.000000
5260.566414 1000.000000 0.000000
5367.718613 0.000000 0.000000
5367.718613 1000.000000 0.000000
5475.553682 0.000000 0.000000
5475.553682 1000.000000 0.000000
5584.075975 0.000000 0.000000
5584.075975 1000.000000 0.000000
5693.289871 0.000000 0.000000
5693.289871 1000.000000 0.000000
5803.199777 0.000000 0.000000
5803.199777 1000.000000 0.000000
5913.810128 0.000000 0.000000
5913.810128 1000.000000 0.000000
6025.125389 0.000000 0.000000
6025.125389 1000.000000 0.000000
6137.150052 0.000000 0.000000
6137.150052 1000.000000 0.000000
6249.888638 0.000000 0.000000
6249.888638 1000.000000 0.000000
6363.345697 0.000000 0.000000
6363.345697 1000.000000 0.000000
6477.525807 0.000000 0.000000
6477.525807 1000.000000 0.000000
6592.433576 0.000000 0.000000
6592.433576 1000.000000 0.000000
6708.073642 0.000000 0.000000
6708.073642 1000.000000 0.000000
6824.450672 0.000000 0.000000
6824.450672 1000.000000 0.000000
6941.569362 0.000000 0.000000
6941.569362 1000.000000 0.000000
7059.434438 0.000000 0.000000
7059.434438 1000.000000 0.000000
7178.050658 0.000000 0.000000
7178.050658 1000.000000 0.000000
7297.422808 0.000000 0.000000
7297.422808 1000.000000 0.000000
7417.555705 0.000000 0.000000
7417.555705 1000.000000 0.000000
7538.454199 0.000000 0.000000
7538.454199 1000.000000 0.000000
7660.123168 0.000000 0.000000
7660.123168 1000.000000 0.000000
7782.567522 0.000000 0.000000
7782.567522 1000.000000 0.000000
7905.792202 0.000000 0.000000
7905.792202 1000.000000 0.000000
8029.802182 0.000000 0.000000
8029.802182 1000.000000 0.000000
8154.602466 0.000000 0.000000
8154.602466 1000.000000 0.000000
8280.198091 0.000000 0.000000
8280.198091 1000.000000 0.000000
8406.594126 0.000000 0.000000
8406.594126 1000.000000 0.000000
8533.795671 0.000000 0.000000
8533.795671 1000.000000 0.000000
8661.807859 0.000000 0.000000
8661.807859 1000.000000 0.000000
8790.635858 0.000000 0.000000
8790.635858 1000.000000 0.000000
8920.284865 0.000000 0.000000
8920.284865 1000.000000 0.000000
9050.760114 0.000000 0.000000
9050.760114 1000.000000 0.000000
9182.066869 0.000000 0.000000
9182.066869 1000.000000 0.000000
9314.210431 0.000000 0.000000
9314.210431 1000.000000 0.000000
9447.196131 0.000000 0.000000
9447.196131 1000.000000 0.000000
9581.029337 0.000000 0.000000
9581.029337 1000.000000 0.000000
9715.715450 0.000000 0.000000
9715.715450 1000.000000 0.000000
9851.259904 0.000000 0.000000
9851.259904 1000.000000 0.000000
9987.668172 0.000000 0.000000
9987.668172 1000.000000 0.000000
10124.945756 0.000000 0.000000
10124.945756 1000.000000 0.000000
10263.098198 0.000000 0.000000
10263.098198 1000.000000 0.000000
10402.131073 0.000000 0.000000
10402.131073 1000.000000 0.000000
10542.049992 0.000000 0.000000
10542.049992 1000.000000 0.000000
10682.860601 0.000000 0.000000
10682.860601 1000.000000 0.000000
10824.568583 0.000000 0.000000
10824.568583 1000.000000 0.000000
10967.179657 0.000000 0.000000
10967.179657 1000.000000 0.000000
11110.699579 0.000000 0.000000
11110.699579 1000.000000 0.000000
11255.134139 0.000000 0.000000
11255.134139 1000.000000 0.000000
11400.489168 0.000000 0.000000
11400.489168 1000.000000 0.000000
11546.770531 0.000000 0.000000
11546.770531 1000.000000 0.000000
11693.984132 0.000000 0.000000
11693.984132 1000.000000 0.000000
11842.135912 0.000000 0.000000
11842.135912 1000.000000 0.000000
11991.231849 0.000000 0.000000
11991.231849 1000.000000 0.000000
12141.277961 0.000000 0.000000
12141.277961 1000.000000 0.000000
12292.280304 0.000000 0.000000
12292.280304 1000.000000 0.000000
12444.244970 0.000000 0.000000
12444.244970 1000.000000 0.000000
12597.178093 0.000000 0.000000
12597.178093 1000.000000 0.000000
12751.085845 0.000000 0.000000
12751.085845 1000.000000 0.000000
12905.974437 0.000000 0.000000
12905.974437 1000.000000 0.000000
13061.850119 0.000000 0.000000
13061.850119 1000.000000 0.000000
13218.719184 0.000000 0.000000
13218.719184 1000.000000 0.000000
13376.587960 0.000000 0.000000
13376.587960 1000.000000 0.000000
13535.462819 0.000000 0.000000
13535.462819 1000.000000 0.000000
13695.350174 0.000000 0.000000
13695.350174 1000.000000 0.000000
13856.256475 0.000000 0.000000
13856.256475 1000.000000 0.000000
14018.188218 0.000000 0.000000
14018.188218 1000.000000 0.000000
14181.151937 0.000000 0.000000
14181.151937 1000.000000 0.000000
14345.154209 0.000000 0.000000
14345.154209 1000.000000 0.000000
14510.201652 0.000000 0.000000
14510.201652 1000.000000 0.000000
14676.300928 0.000000 0.000000
14676.300928 1000.000000 0.000000
14843.458739 0.000000 0.000000
14843.458739 1000.000000 0.000000
15011.681831 0.000000 0.000000
15011.681831 1000.000000 0.000000
15180.976994 0.000000 0.000000
15180.976994 1000.000000 0.000000
15351.351059 0.000000 0.000000
15351.351059 1000.000000 0.000000
15522.810903 0.000000 0.000000
15522.810903 1000.000000 0.000000
15695.363444 0.000000 0.000000
15695.363444 1000.000000 0.000000
15869.015647 0.000000 0.000000
15869.015647 1000.000000 0.000000
16043.774519 0.000000 0.000000
16043.774519 1000.000000 0.000000
16219.647114 0.000000 0.000000
16219.647114 1000.000000 0.000000
16396.640529 0.000000 0.000000
16396.640529 1000.000000 0.000000
16574.761906 0.000000 0.000000
16574.761906 1000.000000 0.000000
16754.018435 0.000000 0.000000
16754.018435 1000.000000 0.000000
16934.417349 0.000000 0.000000
16934.417349 1000.000000 0.000000
17115.965928 0.000000 0.000000
17115.965928 1000.000000 0.000000
17298.671500 0.000000 0.000000
17298.671500 1000.000000 0.000000
17482.541438 0.000000 0.000000
17482.541438 1000.000000 0.000000
17667.583163 0.000000 0.000000
17667.583163 1000.000000 0.000000
17853.804141 0.000000 0.000000
17853.804141 1000.000000 0.000000
18041.211888 0.000000 0.000000
18041.211888 1000.000000 0.000000
18229.813968 0.000000 0.000000
18229.813968 1000.000000 0.000000
18419.617991 0.000000 0.000000
18419.617991 1000.000000 0.000000
18610.631619 0.000000 0.000000
18610.631619 1000.000000 0.000000
18802.862558 0.000000 0.000000
18802.862558 1000.000000 0.000000
18996.318568 0.000000 0.000000
18996.318568 1000.000000 0.000000
19191.007455 0.000000 0.000000
19191.007455 1000.000000 0.000000
19386.937076 0.000000 0.000000
19386.937076 1000.000000 0.000000
19584.115339 0.000000 0.000000
19584.115339 1000.000000 0.000000
19782.550201 0.000000 0.000000
19782.550201 1000.000000 0.000000
19982.249670 0.000000 0.000000
19982.249670 1000.000000 0.000000
20183.221805 0.000000 0.000000
20183.221805 1000.000000 0.000000
20385.474718 0.000000 0.000000
20385.474718 1000.000000 0.000000
20589.016569 0.000000 0.000000
20589.016569 1000.000000 0.000000
20793.855575 0.000000 0.000000
20793.855575 1000.000000 0.000000
21000.000000 0.000000 0.000000
21000.000000 1000.000000 0.000000
 </DataArray>
            </Points>
            <Cells>
                <DataArray type="Int64" Name="connectivity" format="ascii">
2 3 1 0
4 5 3 2
6 7 5 4
8 9 7 6
10 11 9 8
12 13 11 10
14 15 13 12
16 17 15 14
18 19 17 16
20 21 19 18
22 23 21 20
24 25 23 22
26 27 25 24
28 29 27 26
30 31 29 28
32 33 31 30
34 35 33 32
36 37 35 34
38 39 37 36
40 41 39 38
42 43 41 40
44 45 43 42
46 47 45 44
48 49 47 46
50 51 49 48
52 53 51 50
54 55 53 52
56 57 55 54
58 59 57 56
60 61 59 58
62 63 61 60
64 65 63 62
66 67 65 64
68 69 67 66
70 71 69 68
72 73 71 70
74 75 73 72
76 77 75 74
78 79 77 76
80 81 79 78
82 83 81 80
84 85 83 82
86 87 85 84
88 89 87 86
90 91 89 88
92 93 91 90
94 95 93 92
96 97 95 94
98 99 97 96
100 101 99 98
102 103 101 100
104 105 103 102
106 107 105 104
108 109 107 106
110 111 109 108
112 113 111 110
114 115 113 112
116 117 115 114
118 119 117 116
120 121 119 118
122 123 121 120
124 125 123 122
126 127 125 124
128 129 127 126
130 131 129 128
132 133 131 130
134 135 133 132
136 137 135 134
138 139 137 136
140 141 139 138
142 143 141 140
144 145 143 142
146 147 145 144
148 149 147 146
150 151 149 148
152 153 151 150
154 155 153 152
156 157 155 154
158 159 157 156
160 161 159 158
162 163 161 160
164 165 163 162
166 167 165 164
168 169 167 166
170 171 169 168
172 173 171 170
174 175 173 172
176 177 175 174
178 179 177 176
180 181 179 178
182 183 181 180
184 185 183 182
186 187 185 184
188 189 187 186
190 191 189 188
192 193 191 190
194 195 193 192
196 197 195 194
198 199 197 196
200 201 199 198
202 203 201 200
204 205 203 202
206 207 205 204
208 209 207 206
210 211 209 208
212 213 211 210
214 215 213 212
216 217 215 214
218 219 217 216
220 221 219 218
222 223 221 220
224 225 223 222
226 227 225 224
228 229 227 226
230 231 229 228
232 233 231 230
234 235 233 232
236 237 235 234
238 239 237 236
240 241 239 238
242 243 241 240
244 245 243 242
246 247 245 244
248 249 247 246
250 251 249 248
252 253 251 250
254 255 253 252
256 257 255 254
258 259 257 256
260 261 259 258
262 263 261 260
264 265 263 262
266 267 265 264
268 269 267 266
270 271 269 268
272 273 271 270
274 275 273 272
276 277 275 274
278 279 277 276
280 281 279 278
282 283 281 280
284 285 283 282
286 287 285 284
288 289 287 286
290 291 289 288
292 293 291 290
294 295 293 292
296 297 295 294
298 299 297 296
300 301 299 298
302 303 301 300
304 305 303 302
306 307 305 304
308 309 307 306
310 311 309 308
312 313 311 310
314 315 313 312
316 317 315 314
318 319 317 316
320 321 319 318
322 323 321 320
324 325 323 322
326 327 325 324
328 329 327 326
330 331 329 328
332 333 331 330
334 335 333 332
336 337 335 334
338 339 337 336
340 341 339 338
 </DataArray>
                <DataArray type="Int64" Name="offsets" format="ascii"> 4
8
12
16
20
24
28
32
36
40
44
48
52
56
60
64
68
72
76
80
84
88
92
96
100
104
108
112
116
120
124
128
132
136
140
144
148
152
156
160
164
168
172
176
180
184
188
192
196
200
204
208
212
216
220
224
228
232
236
240
244
248
252
256
260
264
268
272
276
280
284
288
292
296
300
304
308
312
316
320
324
328
332
336
340
344
348
352
356
360
364
368
372
376
380
384
388
392
396
400
404
408
412
416
420
424
428
432
436
440
444
448
452
456
460
464
468
472
476
480
484
488
492
496
500
504
508
512
516
520
524
528
532
536
540
544
548
552
556
560
564
568
572
576
580
584
588
592
596
600
604
608
612
616
620
624
628
632
636
640
644
648
652
656
660
664
668
672
676
680
 </DataArray>
                <DataArray type="UInt8" Name="types" format="ascii">
9
9
9
9
9
9
9
9
9
9
9
9
9
9
9
9
9
9
9
9
9
9
9
9
9
9
9
9
9
9
9
9
9
9
9
9
9
9
9
9
9
9
9
9
9
9
9
9
9
9
9
9
9
9
9
9
9
9
9
9
9
9
9
9
9
9
9
9
9
9
9
9
9
9
9
9
9
9
9
9
9
9
9
9
9
9
9
9
9
9
9
9
9
9
9
9
9
9
9
9
9
9
9
9
9
9
9
9
9
9
9
9
9
9
9
9
9
9
9
9
9
9
9
9
9
9
9
9
9
9
9
9
9
9
9
9
9
9
9
9
9
9
9
9
9
9
9
9
9
9
9
9
9
9
9
9
9
9
9
9
9
9
9
9
9
9
9
9
9
9
 </DataArray>
            </Cells>
        </Piece>
    </UnstructuredGrid>
</VTKFile>
