<?xml version="1.0"?>
<VTKFile type="UnstructuredGrid" version="0.1" byte_order="LittleEndian" header_type="UInt32">
  <UnstructuredGrid>
    <FieldData>
      <DataArray type="Int8" Name="OGS_VERSION" NumberOfTuples="41" format="ascii" RangeMin="45" RangeMax="121">
        54 46 50 46 48 45
        51 54 55 45 103 56
        54 51 52 49 51 52
        49 97 46 100 105 114
        116 121 46 50 48 49
        57 48 54 49 50 48
        56 52 57 51 53
      </DataArray>
    </FieldData>
    <Piece NumberOfPoints="44" NumberOfCells="10">
      <PointData>
        <DataArray type="Float64" Name="pressure" format="ascii" RangeMin="1000000" RangeMax="1900000">
          1150000 1000000 1000000 1150000 1150000 1000000
          1000000 1150000 1300000 1300000 1300000 1300000
          1450000 1450000 1450000 1450000 1600000 1600000
          1600000 1600000 1650000 1650000 1650000 1650000
          1700000 1700000 1700000 1700000 1750000 1750000
          1750000 1750000 1800000 1800000 1800000 1800000
          1850000 1850000 1850000 1850000 1900000 1900000
          1900000 1900000
        </DataArray>
        <DataArray type="Float64" Name="q" NumberOfComponents="3" format="ascii" RangeMin="1.5e-05" RangeMax="1.5e-05">
          -1.5e-05 2.037330984e-20 7.6841107548e-21 -1.5e-05 -6.3223399897e-21 -1.8156943534e-21
          -1.5e-05 -6.3223399897e-21 6.776263578e-21 -1.5e-05 2.037330984e-20 -1.6940658945e-20
          -1.5e-05 2.7680606359e-21 2.2565818429e-20 -1.5e-05 1.2162845893e-22 -1.8156943534e-21
          -1.5e-05 1.2162845893e-22 6.776263578e-21 -1.5e-05 2.7680606359e-21 -3.1822366619e-20
          -1.5e-05 -1.2245606191e-20 4.6282740952e-20 -1.5e-05 3.5171943731e-20 -8.8269502938e-20
          -1.5e-05 -1.1775387479e-20 -1.7848506122e-20 -1.5e-05 9.3010672961e-22 -6.6459025887e-22
          -1.5e-05 -1.4194857862e-20 5.686846966e-20 -1.5e-05 -3.8637184873e-20 -6.9091816298e-20
          -1.5e-05 -1.5744439302e-19 2.4802846123e-20 -1.5e-05 -1.1704636359e-19 9.9211384492e-21
          -1.5e-05 6.2891104767e-20 -5.1421386599e-20 -1.5e-05 1.1298331085e-19 -1.9057804687e-19
          -1.5e-05 2.6108168924e-20 1.8999610216e-20 -1.5e-05 -1.1074628315e-19 -3.0165662515e-19
          -1.5e-05 1.0109225934e-19 1.1046170346e-19 -1.5e-05 9.1657634727e-20 1.1338078647e-19
          -1.5e-05 5.5604469637e-20 4.4645123021e-20 -1.5e-05 2.0734062939e-19 1.9638128277e-19
          -1.5e-05 1.6371624947e-19 -1.0115743983e-19 -1.5e-05 1.4998564589e-19 -1.0115743983e-19
          -1.5e-05 -1.3975607003e-19 1.2099971673e-19 -1.5e-05 -2.7526387653e-20 -3.233145964e-19
          -1.5e-05 1.2644679979e-20 -1.8513096381e-19 -1.5e-05 4.7855178387e-20 -4.4288970175e-20
          -1.5e-05 1.2801923723e-19 -1.7255146432e-19 -1.5e-05 1.1493575885e-20 7.1394024487e-20
          -1.5e-05 -9.0174235503e-20 1.183413557e-19 -1.5e-05 -2.4463393678e-19 -9.1236301386e-20
          -1.5e-05 -1.1951631751e-19 -1.8513096381e-19 -1.5e-05 1.7266561419e-21 2.7176284881e-19
          -1.5e-05 1.100816929e-19 -2.4199943347e-19 -1.5e-05 6.4398361708e-20 7.4052385523e-20
          -1.5e-05 1.7451030498e-20 7.4052385523e-20 -1.5e-05 -1.3884822286e-20 -5.4210108624e-20
          -1.5e-05 -4.9605692246e-21 -2.0231487967e-19 -1.5e-05 4.1986761986e-20 5.4210108624e-20
          -1.5e-05 -2.2144485088e-20 5.4210108624e-20 -1.5e-05 -3.4723984572e-20 -1.4525554827e-20
        </DataArray>
      </PointData>
      <CellData>
        <DataArray type="Int32" Name="MaterialIDs" format="ascii" RangeMin="0" RangeMax="1">
          0 0 0 0 1 1
          1 1 1 1
        </DataArray>
      </CellData>
      <Points>
        <DataArray type="Float64" Name="Points" NumberOfComponents="3" format="ascii" RangeMin="0" RangeMax="100.99504938">
          10 10 10 0 10 10
          0 0 10 10 0 10
          10 10 0 0 10 0
          0 0 0 10 0 0
          20 10 10 20 0 10
          20 10 0 20 0 0
          30 10 10 30 0 10
          30 10 0 30 0 0
          40 10 10 40 0 10
          40 10 0 40 0 0
          50 10 10 50 0 10
          50 10 0 50 0 0
          60 10 10 60 0 10
          60 10 0 60 0 0
          70 10 10 70 0 10
          70 10 0 70 0 0
          80 10 10 80 0 10
          80 10 0 80 0 0
          90 10 10 90 0 10
          90 10 0 90 0 0
          100 10 10 100 0 10
          100 10 0 100 0 0
        </DataArray>
      </Points>
      <Cells>
        <DataArray type="Int64" Name="connectivity" format="ascii" RangeMin="0" RangeMax="43">
          4 5 6 7 0 1
          2 3 10 4 7 11
          8 0 3 9 14 10
          11 15 12 8 9 13
          18 14 15 19 16 12
          13 17 22 18 19 23
          20 16 17 21 26 22
          23 27 24 20 21 25
          30 26 27 31 28 24
          25 29 34 30 31 35
          32 28 29 33 38 34
          35 39 36 32 33 37
          42 38 39 43 40 36
          37 41
        </DataArray>
        <DataArray type="Int64" Name="offsets" format="ascii" RangeMin="8" RangeMax="80">
          8 16 24 32 40 48
          56 64 72 80
        </DataArray>
        <DataArray type="UInt8" Name="types" format="ascii" RangeMin="12" RangeMax="12">
          12 12 12 12 12 12
          12 12 12 12
        </DataArray>
      </Cells>
    </Piece>
  </UnstructuredGrid>
</VTKFile>
