<VTKFile type="UnstructuredGrid" version="1.0" byte_order="LittleEndian" header_type="UInt64">
  <UnstructuredGrid>
    <Piece NumberOfPoints="5" NumberOfCells="4">
      <PointData Scalars="bulk_node_ids">
        <DataArray type="UInt64" IdType="1" Name="bulk_node_ids" format="ascii" RangeMin="4" RangeMax="24">
          4 9 14 19 24
        </DataArray>
      </PointData>
      <CellData Scalars="bulk_element_ids">
        <DataArray type="UInt64" IdType="1" Name="bulk_element_ids" format="ascii" RangeMin="7" RangeMax="31">
          7 15 23 31
        </DataArray>
      </CellData>
      <Points>
        <DataArray type="Float64" Name="Points" NumberOfComponents="3" format="ascii" RangeMin="5" RangeMax="7.0710678118654755">
          5 0 3 5 1.25 3
          5 2.5 3 5 3.75 3
          5 5 3
          <InformationKey name="L2_NORM_RANGE" location="vtkDataArray" length="2">
            <Value index="0">
              5
            </Value>
            <Value index="1">
              7.0710678119
            </Value>
          </InformationKey>
          <InformationKey name="L2_NORM_FINITE_RANGE" location="vtkDataArray" length="2">
            <Value index="0">
              5
            </Value>
            <Value index="1">
              7.0710678119
            </Value>
          </InformationKey>
        </DataArray>
      </Points>
      <Cells>
        <DataArray type="Int64" Name="connectivity" format="ascii" RangeMin="0" RangeMax="4">
          0 1 1 2 2 3
          3 4
        </DataArray>
        <DataArray type="Int64" Name="offsets" format="ascii" RangeMin="2" RangeMax="8">
          2 4 6 8
        </DataArray>
        <DataArray type="UInt8" Name="types" format="ascii" RangeMin="3" RangeMax="3">
          3 3 3 3
        </DataArray>
      </Cells>
    </Piece>
  </UnstructuredGrid>
</VTKFile>
