<?xml version="1.0"?>
<VTKFile type="UnstructuredGrid" version="1.0" byte_order="LittleEndian" header_type="UInt64">
  <UnstructuredGrid>
    <Piece NumberOfPoints="319" NumberOfCells="315">
      <PointData>
        <DataArray type="Float64" Name="Max Depth" format="ascii" RangeMin="0" RangeMax="7.15">
          2.18 2.06 1.73 1.99 1.87 1.77
          2.21 4.67 4.72 4.84 3.79 3.42
          3.42 3.48 3.46 4.73 3.51 3.89
          3.77 4.02 3.79 3.88 4.6 4.47
          3.52 1.93 3.72 2.01 3.64 2.68
          3.5 2.43 2.07 2.73 3 3.18
          2.6 2.84 2.97 1.8 2.44 3.86
          3.79 2.34 3.59 3.65 2.69 2.14
          3.24 2.4 2.32 2.23 2.01 2.13
          3.42 2.19 3.74 2.15 2.31 2.93
          2.52 4.15 2.94 2.35 2.58 2.18
          2.96 2.41 4.01 3.61 2.1 3.68
          2.75 3.29 1.69 2.98 2.51 3.84
          4.27 2.27 3.89 3.07 3.83 3.41
          1.96 3.67 3.78 3.6 3.87 3.54
          2.98 3.23 3.91 2.98 2.62 3.55
          3.47 3.7 2.84 2.76 2.06 2.11
          2.14 2.07 2.21 2.09 2.51 2.03
          1.74 2.26 2.08 1.84 2.24 2.21
          1.89 1.97 1.72 1.63 1.96 1.88
          1.59 2.07 1.88 4.07 4.16 3.84
          3.98 3.77 3.76 4.22 3.72 3.87
          4.04 3.7 2.64 3.19 2.44 2.16
          2.27 2.2 3.04 3.41 3.89 3.92
          1.63 2.1 3.52 2.24 1.79 3.84
          2.53 2 2.84 1.78 1.36 2.69
          1.72 1.73 1.66 2.42 1.72 2.52
          2.14 2.05 3.03 2.14 3.72 4.22
          5.15 3.87 3.66 3.44 3.05 3.58
          3.27 1.55 3.77 4.25 3.37 4.3
          3.68 3.97 3.79 4.01 3.51 3.56
          4.98 4.06 3.98 4.16 3.03 1.63
          4.39 5.35 3.36 5.22 4.72 3.94
          5.04 5.17 3.49 1.72 1.5 4.75
          4.09 4.09 4.03 3.89 4.05 3.93
          4.09 3.85 3.78 3.81 2.53 3.39
          2.59 2.12 2.28 3.79 2.84 2.6
          2.61 2.98 2.19 2.87 2.8 3.5
          3.57 2.4 2.06 2.43 3.1 3.91
          2.28 2.87 3.68 2.99 3.7 3.62
          3.39 3.48 3.53 3.39 3.71 3.6
          3.76 2.51 3.47 3.24 2.72 3.4
          3.15 2.84 2.52 2.72 2.31 2.66
          3.28 3.34 3.36 3.43 3.57 3.62
          3.68 3.65 3.75 3.78 3.88 4.24
          4.14 3.83 3.04 2.6 2.77 2.73
          3.66 4.18 3.13 3.93 3.74 2.2
          3.65 3.83 4.13 4.23 4.61 4.14
          4.39 3.82 4.01 4.3 3.97 4.2
          3.28 4.01 4.04 4.13 3.05 2.41
          4.06 4.57 4.84 5.35 3.3 2.79
          3.27 2.5 3.03 2.37 2.52 2.87
          2.26 0 0 0 0 0
          7.15
        </DataArray>
      </PointData>
      <CellData>
        <DataArray type="Int32" Name="MaterialIDs" format="ascii" RangeMin="0" RangeMax="1">
          0 0 0 0 0 0
          0 0 0 0 0 0
          0 0 0 0 0 0
          0 0 0 0 0 0
          0 0 0 0 0 0
          0 0 0 0 0 0
          0 0 0 0 0 0
          0 0 0 0 0 0
          0 0 0 0 0 0
          0 0 0 0 0 0
          0 0 0 0 0 0
          0 0 0 0 0 0
          0 0 0 0 0 0
          0 0 0 0 0 0
          0 0 0 0 0 0
          0 0 0 0 0 0
          0 0 0 0 0 0
          0 0 0 0 0 0
          0 0 0 0 0 0
          0 0 0 0 0 0
          0 0 0 0 0 0
          0 0 0 0 0 0
          0 0 0 0 0 0
          0 0 0 0 0 0
          0 0 0 0 0 0
          0 0 0 0 0 0
          0 0 0 0 0 0
          0 0 0 0 0 0
          0 0 0 0 0 0
          0 0 0 0 0 0
          0 0 0 0 0 0
          0 0 0 0 0 0
          0 0 0 0 0 0
          0 0 0 0 0 0
          0 0 0 0 0 0
          0 0 0 0 0 0
          0 0 0 0 0 0
          0 0 0 0 0 0
          0 0 0 0 0 0
          0 0 0 0 0 0
          0 0 0 0 0 0
          0 0 0 0 0 0
          0 0 0 0 0 0
          0 0 0 0 0 0
          0 0 0 0 0 0
          0 0 0 0 0 0
          0 0 0 0 0 0
          0 0 0 0 0 0
          0 0 0 0 0 0
          0 0 0 0 0 0
          0 0 0 0 0 0
          0 0 0 0 0 0
          0 0 1
        </DataArray>
      </CellData>
      <Points>
        <DataArray type="Float64" Name="Points" NumberOfComponents="3" format="ascii" RangeMin="5666799.744758739" RangeMax="5668647.150081978">
          416393.623715 5651782.34777 113.5 416393.861332 5651755.75653 114.36
          416313.241064 5651769.21292 117.4 416367.639941 5651755.86975 115.34
          416450.2344 5651838.56136 113.92 416349.081355 5651747.14847 116.28
          416367.56581 5651741.74547 115.39 416423.477927 5652388.49241 111.97
          416391.544324 5652482.36678 111.77 416398.584158 5652452.86163 111.9
          416467.780874 5652566.28256 111.57 416440.440225 5652692.15795 112.03
          416390.826461 5652613.17139 112.49 416356.952609 5652560.81892 112.67
          416375.184541 5652589.0633 112.56 416408.142842 5652418.5644 111.97
          416409.471228 5652642.64629 112.3 416439.773433 5652550.51921 111.59
          416476.363467 5652668.74904 111.77 416393.628744 5652507.56157 111.73
          416481.020547 5652570.14786 111.54 416415.872997 5652531.35621 111.68
          416443.500021 5652357.12387 112.01 416461.442497 5652331.59651 112.14
          416679.215854 5651696.22962 114.5 416783.969567 5651703.13325 115.34
          416557.593304 5651868.78913 113.55 416509.68372 5651872.92096 114.77
          416730.541992 5651782.66565 114.02 416840.862722 5651621.96848 114.9
          416785.112363 5651630.97541 114.25 416805.390423 5651656.55386 115.15
          416633.309946 5651604.20881 116.05 416797.132304 5651707.72225 114.56
          416827.499343 5651595.07449 114.47 416678.679923 5651682.65762 114.65
          416786.360518 5651791.19362 114.63 416798.705764 5651718.35294 114.28
          416769.620813 5651745.6842 114.19 416852.282393 5651649.01342 115.58
          416814.421368 5651819.80077 114.79 416667.743612 5651805.13622 113.71
          416683.905326 5651731.38688 113.93 416853.57504 5651762.03472 114.53
          416667.726173 5651857.34111 113.65 416654.640473 5651763.41722 113.83
          416763.837388 5651769.3117 114.47 416797.47246 5651736.21863 115.12
          416703.937139 5651819.32911 113.85 416777.465743 5651755.66909 114.81
          416838.908824 5651844.68645 114.93 416518.79314 5651882.7029 114.73
          416875.603494 5651796.71446 114.6 416863.329211 5651869.47117 115.1
          416754.373134 5651760.06654 114.12 416825.415436 5651675.56497 115.1
          416622.305918 5651798.61632 113.71 416499.410012 5651886.10573 114.68
          416813.579707 5651906.83559 114.28 416840.600686 5651608.38497 114.66
          416822.704326 5651743.0597 114.4 416592.868625 5652020.3175 113.07
          416704.386655 5651887.76942 113.78 416610.599279 5652003.5231 114.82
          416778.353403 5651949.24071 114.03 416847.283643 5651767.85244 114.52
          416548.262447 5651469.44418 117.26 416762.470019 5651968.50419 114.17
          416585.263894 5652039.81869 113.02 416613.499702 5651964.72976 113.39
          416484.425678 5651847.42553 114.23 416626.855911 5651927.11782 113.53
          416741.24307 5651918.38956 113.91 416824.576006 5651592.09073 114.41
          416869.541663 5651672.84162 115.49 416518.53035 5651902.87565 114.18
          416880.419918 5651736.01396 114.66 416638.165988 5651893.70423 113.56
          416562.995985 5651961.07076 113.29 416808.003786 5651696.42472 114.85
          416574.502582 5652070.58837 112.98 416590.341544 5651529.36201 116.51
          416672.505561 5651791.39273 113.78 416613.604566 5651569.6305 116.18
          416771.314548 5651689.68182 115.44 416695.183219 5651726.66367 114.01
          416590.729037 5651832.8678 113.63 416743.08278 5651672.25116 114.17
          416660.83962 5651824.49147 113.67 416771.56947 5651644.24669 114.24
          416567.502021 5651552.20053 116.76 416828.634711 5651588.0843 114.49
          416649.548513 5651856.80451 113.56 416856.726668 5651560.58712 114.75
          416647.648989 5651635.62647 115.5 416714.758017 5651700.15318 114.12
          416800.322053 5651615.98032 114.29 416683.811649 5651759.14614 113.87
          416663.317952 5651665.67965 114.99 416847.421007 5651615.38208 114.77
          416881.052756 5651649.56089 115.3 416896.727959 5651700.64508 115.1
          416904.684765 5651711.96942 114.86 416934.398608 5651689.60916 115.42
          416982.567327 5651708.69894 115.54 416899.987199 5651667.79033 115.29
          416920.412282 5651497.9228 115.1 416966.097128 5651914.58387 115
          416922.109428 5651866.73766 115.46 416940.826664 5651848.54483 114.79
          416910.045935 5651831.45206 114.7 416979.563347 5651784.7832 115.39
          416926.290315 5651730.87955 114.96 416988.513205 5651735.57601 115.47
          416969.294854 5651820.64981 115.16 416952.912829 5651757.7933 115.24
          416954.715348 5651876.82826 114.86 416958.607817 5651891.40831 114.96
          416933.695609 5651855.36914 114.76 416902.274644 5651886.46789 115.38
          416997.87003 5651792.60486 115.4 416903.872359 5651825.24563 114.69
          416890.851285 5651897.51756 115.32 416537.01333 5652176.7958 112.67
          416512.737875 5652246.73279 112.44 416594.355519 5652270.15546 112.64
          416555.94313 5652122.99486 112.8 416630.697706 5652162.09577 112.92
          416596.459347 5652133.7636 113.01 416499.108705 5652278.11574 112.36
          416629.223829 5652299.1124 112.6 416559.489417 5652241.10157 112.69
          416548.63929 5652143.82503 112.74 416664.470444 5652190.26505 112.84
          416553.844529 5652369.50721 113.09 416571.931376 5652384.62992 112.66
          416547.684971 5652364.92914 113.2 416534.780107 5652356.25467 113.38
          416499.123225 5652328.07654 113.98 416522.471938 5652343.96088 113.6
          416806.187318 5652158.33498 113.15 416797.302025 5652169.19369 112.9
          416687.729699 5652301.05151 112.31 416710.189335 5652273.93923 112.34
          416744.24601 5652125.34896 114.73 416859.876293 5652223.71698 113.96
          416775.305189 5652195.76917 112.86 416828.751251 5652259.33991 113.33
          416788.929046 5652144.27984 114.45 416871.833093 5652381.659 112.29
          416838.57751 5652186.1314 113.6 416816.314316 5652168.18689 114.18
          416725.097448 5652384.14253 112.7 416767.474684 5652130.25174 114.53
          416707.116734 5652098.13034 114.9 416750.617801 5652353.40969 112.86
          416778.751395 5652156.20712 114.53 416730.035514 5652101.51974 114.7
          416762.259886 5652139.79394 114.64 416802.019385 5652291.62412 113.14
          416792.439685 5652140.00554 114.42 416776.184157 5652322.68784 113.04
          416870.019063 5652211.51782 113.88 416873.496618 5652207.36445 113.86
          416699.883947 5652414.41355 112.52 416839.534044 5652188.37948 114
          416756.01073 5652218.78106 112.71 416843.233915 5652415.72743 111.94
          416877.097329 5652415.9331 111.65 416732.650472 5652246.85296 112.49
          416698.392028 5652218.49067 112.76 416507.454949 5652577.52261 111.49
          416618.035226 5652575.98357 111.58 416630.508199 5652433.68947 112.19
          416673.994736 5652445.54023 112.38 416668.124098 5652549.44028 113.83
          416513.315284 5652645.11721 111.52 416604.031452 5652678.34584 111.22
          416654.893522 5652450.53331 112.32 416621.829454 5652698.5095 111.16
          416529.613241 5652553.55605 111.53 416550.210117 5652621.28145 111.33
          416653.228753 5652707.78732 111.04 416662.002163 5652741.11635 111.17
          416581.720154 5652600.52653 111.42 416567.977463 5652624.6884 111.32
          416793.929743 5652732.52145 110.87 416753.692214 5652655.63746 111.2
          416721.257291 5652702.17698 111.04 416722.390898 5652708.19253 110.92
          416834.232184 5652756.42287 112.54 416696.546518 5652531.99993 114.55
          416786.937903 5652620.64076 111.23 416858.375196 5652446.15007 111.58
          416882.887157 5652770.29426 110.75 416822.960123 5652744.85817 110.78
          416803.828629 5652578.77102 111.3 416718.214823 5652681.42091 111.09
          416816.608139 5652546.21056 111.33 416829.231689 5652512.69246 111.41
          416900.894983 5652346.60089 112.62 416927.574307 5652260.42244 114.23
          416920.899158 5652274.94464 114.19 416896.072356 5652387.76528 111.8
          416298.803945 5653274.39302 111.09 416341.518685 5653219.05345 111.33
          416276.736297 5653307.53984 110.97 416394.215369 5653169.44846 111.59
          416252.349426 5653332.2771 110.85 416368.067216 5653195.971 111.46
          416321.550497 5653241.00429 111.26 416428.588108 5653133.04781 111.78
          416467.9129 5653103.53335 111.97 416653.383374 5652810.53337 111.41
          416755.630309 5653077.9147 113.4 416550.116998 5653039.97718 112.34
          416740.648537 5652998.99266 113.2 416786.63763 5653064.06399 114.1
          416799.943593 5652808.44719 112.68 416841.022468 5652854.3932 112.92
          416667.925881 5653089.82281 112.94 416803.671063 5653008.96508 113.77
          416812.829583 5652827.38939 112.79 416829.501611 5652902.44089 113.19
          416799.467863 5652815.84722 112.74 416816.028625 5652956.4212 113.47
          416707.786541 5653067.80528 113.11 416840.579525 5652843.0348 112.88
          416623.854949 5652968.10698 111.95 416721.248341 5652994.01398 113.4
          416758.166689 5653117.99848 113.32 416810.754058 5652791.99774 112.67
          416588.260164 5653095.28943 112.54 416657.163489 5652775.85936 111.28
          416714.518672 5653149.43822 113.12 416619.030923 5653125.33796 112.67
          416650.22762 5652903.51181 111.7 416751.262833 5652957.75233 112.73
          416509.014966 5653073.41209 112.14 416644.210424 5652940.86878 111.83
          416553.910397 5653032.45919 112.31 416587.049165 5653001.97167 112.13
          416731.754184 5652907.85671 111.97 416761.596137 5652917.2436 112.1
          416650.685765 5652888.09545 111.63 416691.767268 5652898.13906 111.8
          416651.475628 5652857.06958 111.52 416670.662725 5653181.12586 112.91
          416539.932209 5653048.64978 112.28 416563.564903 5653072.67182 112.45
          416645.569581 5653152.61065 112.79 417135.104298 5652876.79158 110.39
          417096.353803 5652860.40261 110.39 417056.589602 5652843.70377 110.39
          416983.627871 5652812.71056 110.5 416940.083282 5652794.35293 110.54
          417016.88057 5652826.78652 110.44 417177.556321 5652894.80386 110.35
          416576.561962 5653199.68733 112.47 416578.087561 5653220.14006 112.49
          416543.651967 5653170.60944 112.28 416506.156787 5653137.32927 112.14
          416539.56413 5653266.50169 112.24 416519.229853 5653268.48912 112.23
          416488.541016 5653244.40217 112.08 416457.171453 5653219.50756 111.93
          416425.589956 5653194.53498 111.8 416405.71182 5653178.69859 111.63
          416529.764458 5651916.27771 113.41 416597.137288 5652009.35238 113.1
          416579.531209 5651990.34824 113.22 416604.12424 5651988.72866 113.3
          416544.626995 5651574.75964 116.91 416436.283398 5651825.43142 112.99
          416886.377388 5651531.38763 114.9 416449.61889 5651812.33258 112.93
          416466.378064 5651809.47156 114.32 416587.231163 5651997.9241 113.18
          416567.321972 5651492.24976 116.77 416562.288375 5652104.86913 112.87
          416522.5364 5651908.18307 113.44 416504.970002 5651860.19364 115.14
          416539.738258 5651890.05322 113.45 416637.915568 5651890.53999 113.6
          416599.105622 5652407.62633 111.95 416510.6425 5652514.71396 111.65
          416825.03682 5652748.94498 111.14 416569.673894 5652442.99634 111.8
          416478.728243 5652307.12721 112.26 416585.416688 5652651.16102 111.24
          416685.553801 5652708.26489 111.06 416332.718519 5652523.11531 112.85
          416643.019334 5652354.77926 112.11 416539.893314 5652478.75419 111.73
          416657.510526 5652554.1375 111.85 416620.925531 5652381.38471 112.05
          416693.952333 5652701.02574 110.98 416524.708675 5652212.33608 112.54
          416886.013445 5652774.80789 111.09 416853.67986 5652229.42763 113.53
          416664.759259 5652328.76854 112.2 416852.445837 5652757.33431 110.73
          416772.933636 5652723.69973 110.94 416842.684893 5652479.6407 111.5
          416546.903535 5652580.82586 111.44 417113.995352 5652878.35467 110.9
          416927.921708 5652314.04076 113 416947.134007 5652800.56186 110.98
          417110.718596 5652870.04506 110.83 417069.072239 5652852.2447 110.89
          417008.067636 5652826.26083 110.95 416914.359078 5652783.49609 110.6
          416954.70905 5651464.1811 115.31 416508.895904 5651860.25609 115.37
          416878.332143 5652206.36132 113.66 416797.86497 5652137.68791 113.97
          417125.164396 5652884.83444 110.88 416224.710732 5653345.68995 110.6
          416459.846653 5651802.89529 110.5
          <InformationKey name="L2_NORM_RANGE" location="vtkDataArray" length="2">
            <Value index="0">
              5666799.7448
            </Value>
            <Value index="1">
              5668647.1501
            </Value>
          </InformationKey>
        </DataArray>
      </Points>
      <Cells>
        <DataArray type="Int64" Name="connectivity" format="ascii" RangeMin="0" RangeMax="318">
          66 278 90 81 278 81
          274 93 312 106 106 274
          6 1 3 0 2 3
          5 6 8 19 13 14
          291 13 14 12 9 8
          147 159 150 140 31 29
          0 273 51 75 47 49
          35 24 77 71 83 32
          33 37 85 42 48 41
          68 80 46 54 140 141
          144 158 67 64 82 41
          160 315 56 86 94 98
          282 280 73 96 78 270
          157 153 133 170 87 95
          270 277 79 33 272 90
          97 82 89 87 70 275
          85 97 268 78 26 282
          62 44 156 148 166 169
          86 26 28 48 36 46
          38 54 123 297 44 92
          277 269 275 318 30 89
          71 69 128 127 63 271
          126 132 96 30 158 156
          169 143 24 85 273 275
          41 88 271 269 42 45
          141 146 64 72 283 77
          58 64 61 68 146 166
          153 148 54 28 32 94
          131 125 37 38 57 4
          127 133 81 83 279 126
          124 129 154 144 88 92
          25 37 1 275 92 283
          45 56 49 46 60 37
          72 62 80 279 84 31
          4 273 98 35 95 85
          269 61 69 271 40 36
          280 268 276 318 148 160
          75 280 297 124 281 51
          27 70 132 123 170 169
          109 118 59 34 115 112
          114 109 103 105 101 102
          113 104 108 119 102 76
          52 65 119 122 50 40
          65 60 91 73 39 55
          120 114 55 79 105 100
          34 73 29 99 117 116
          118 110 121 52 111 115
          99 59 93 91 112 102
          53 50 76 43 116 118
          74 101 104 103 122 53
          110 121 43 65 100 99
          165 162 201 162 162 163
          163 314 107 117 299 147
          145 162 151 165 202 145
          288 23 129 288 296 189
          17 10 18 176 224 218
          222 224 186 195 289 177
          216 237 21 17 221 225
          19 21 178 173 139 137
          187 197 192 187 173 284
          229 216 302 186 175 294
          164 174 300 292 155 152
          161 155 218 231 143 142
          285 180 142 300 292 295
          16 11 130 300 23 22
          185 289 188 189 191 175
          152 164 176 181 135 284
          304 184 134 135 177 179
          284 287 197 188 125 130
          159 161 189 302 15 9
          12 16 293 285 198 196
          181 185 7 15 20 171
          10 20 179 182 294 172
          241 228 184 185 213 233
          11 18 22 7 174 178
          171 304 180 304 287 293
          172 184 237 243 295 284
          138 139 239 236 242 245
          236 244 243 242 196 192
          137 136 136 134 246 213
          228 239 245 244 244 246
          233 183 183 290 290 296
          182 296 307 310 252 251
          225 223 298 307 256 253
          190 301 231 190 253 252
          255 254 227 222 309 308
          219 227 308 305 301 194
          195 301 305 316 168 193
          194 311 199 198 303 199
          311 255 286 298 254 256
          223 219 310 309 193 303
          306 200 200 149 203 168
          167 193 149 167 204 206
          206 208 207 209 210 204
          209 205 205 210 214 226
          249 248 215 248 234 247
          232 249 238 212 217 221
          240 241 211 207 220 235
          230 234 247 250 226 220
          212 211 248 238 250 235
          235 232 240 215 208 317
          251 257 264 265 261 212
          266 267 267 207 265 266
          263 264 259 262 262 263
          258 260 260 261 318 281
        </DataArray>
        <DataArray type="Int64" Name="offsets" format="ascii" RangeMin="2" RangeMax="630">
          2 4 6 8 10 12
          14 16 18 20 22 24
          26 28 30 32 34 36
          38 40 42 44 46 48
          50 52 54 56 58 60
          62 64 66 68 70 72
          74 76 78 80 82 84
          86 88 90 92 94 96
          98 100 102 104 106 108
          110 112 114 116 118 120
          122 124 126 128 130 132
          134 136 138 140 142 144
          146 148 150 152 154 156
          158 160 162 164 166 168
          170 172 174 176 178 180
          182 184 186 188 190 192
          194 196 198 200 202 204
          206 208 210 212 214 216
          218 220 222 224 226 228
          230 232 234 236 238 240
          242 244 246 248 250 252
          254 256 258 260 262 264
          266 268 270 272 274 276
          278 280 282 284 286 288
          290 292 294 296 298 300
          302 304 306 308 310 312
          314 316 318 320 322 324
          326 328 330 332 334 336
          338 340 342 344 346 348
          350 352 354 356 358 360
          362 364 366 368 370 372
          374 376 378 380 382 384
          386 388 390 392 394 396
          398 400 402 404 406 408
          410 412 414 416 418 420
          422 424 426 428 430 432
          434 436 438 440 442 444
          446 448 450 452 454 456
          458 460 462 464 466 468
          470 472 474 476 478 480
          482 484 486 488 490 492
          494 496 498 500 502 504
          506 508 510 512 514 516
          518 520 522 524 526 528
          530 532 534 536 538 540
          542 544 546 548 550 552
          554 556 558 560 562 564
          566 568 570 572 574 576
          578 580 582 584 586 588
          590 592 594 596 598 600
          602 604 606 608 610 612
          614 616 618 620 622 624
          626 628 630
        </DataArray>
        <DataArray type="UInt8" Name="types" format="ascii" RangeMin="3" RangeMax="3">
          3 3 3 3 3 3
          3 3 3 3 3 3
          3 3 3 3 3 3
          3 3 3 3 3 3
          3 3 3 3 3 3
          3 3 3 3 3 3
          3 3 3 3 3 3
          3 3 3 3 3 3
          3 3 3 3 3 3
          3 3 3 3 3 3
          3 3 3 3 3 3
          3 3 3 3 3 3
          3 3 3 3 3 3
          3 3 3 3 3 3
          3 3 3 3 3 3
          3 3 3 3 3 3
          3 3 3 3 3 3
          3 3 3 3 3 3
          3 3 3 3 3 3
          3 3 3 3 3 3
          3 3 3 3 3 3
          3 3 3 3 3 3
          3 3 3 3 3 3
          3 3 3 3 3 3
          3 3 3 3 3 3
          3 3 3 3 3 3
          3 3 3 3 3 3
          3 3 3 3 3 3
          3 3 3 3 3 3
          3 3 3 3 3 3
          3 3 3 3 3 3
          3 3 3 3 3 3
          3 3 3 3 3 3
          3 3 3 3 3 3
          3 3 3 3 3 3
          3 3 3 3 3 3
          3 3 3 3 3 3
          3 3 3 3 3 3
          3 3 3 3 3 3
          3 3 3 3 3 3
          3 3 3 3 3 3
          3 3 3 3 3 3
          3 3 3 3 3 3
          3 3 3 3 3 3
          3 3 3 3 3 3
          3 3 3 3 3 3
          3 3 3 3 3 3
          3 3 3 3 3 3
          3 3 3 3 3 3
          3 3 3 3 3 3
          3 3 3 3 3 3
          3 3 3 3 3 3
          3 3 3
        </DataArray>
      </Cells>
    </Piece>
  </UnstructuredGrid>
</VTKFile>
