<?xml version="1.0"?>
<VTKFile type="UnstructuredGrid" version="0.1" byte_order="LittleEndian" header_type="UInt32">
  <UnstructuredGrid>
    <FieldData>
      <DataArray type="Int8" Name="OGS_VERSION" NumberOfTuples="41" format="ascii" RangeMin="45" RangeMax="121">
        54 46 50 46 48 45
        49 48 49 45 103 55
        51 53 48 48 48 50
        98 49 46 100 105 114
        116 121 46 50 48 49
        57 48 52 50 54 49
        52 51 56 53 55
      </DataArray>
    </FieldData>
    <Piece NumberOfPoints="507" NumberOfCells="288">
      <PointData>
        <DataArray type="Float64" Name="pressure" format="ascii" RangeMin="0" RangeMax="300000.0024">
          269444.40216 266666.70213 266666.70213 269444.40216 300000.0024 300000.0024
          300000.0024 300000.0024 238888.90191 233333.30187 233333.30187 238888.90191
          208333.30167 200000.0016 200000.0016 208333.30167 177778.00142 166667.00133
          166667.00133 177778.00142 147222.00118 133333.00107 133333.00107 147222.00118
          116667.00093 100000.0008 100000.0008 116667.00093 269444.40216 266666.70213
          300000.0024 300000.0024 238888.90191 233333.30187 208333.30167 200000.0016
          177778.00142 166667.00133 147222.00118 133333.00107 116667.00093 100000.0008
          272222.20218 272222.20218 300000.0024 300000.0024 244444.40196 244444.40196
          216666.70173 216666.70173 188889.00151 188889.00151 161111.00129 161111.00129
          133333.00107 133333.00107 272222.20218 300000.0024 244444.40196 216666.70173
          188889.00151 161111.00129 133333.00107 275000.0022 275000.0022 300000.0024
          300000.0024 250000.002 250000.002 225000.0018 225000.0018 200000.0016
          200000.0016 175000.0014 175000.0014 150000.0012 150000.0012 275000.0022
          300000.0024 250000.002 225000.0018 200000.0016 175000.0014 150000.0012
          277777.80222 277777.80222 300000.0024 300000.0024 255555.60204 255555.50204
          233333.30187 233333.30187 211111.10169 211111.10169 188889.00151 188889.00151
          166667.00133 166667.00133 277777.80222 300000.0024 255555.60204 233333.30187
          211111.10169 188889.00151 166667.00133 280555.60224 280555.60224 300000.0024
          300000.0024 261111.10209 261111.10209 241666.70193 241666.70193 222222.20178
          222222.20178 202777.80162 202777.80162 183333.00147 183333.00147 280555.60224
          300000.0024 261111.10209 241666.70193 222222.20178 202777.80162 183333.00147
          283333.30227 283333.30227 300000.0024 300000.0024 266666.70213 266666.70213
          250000.002 250000.002 233333.30187 233333.30187 216666.70173 216666.70173
          200000.0016 200000.0016 283333.30227 300000.0024 266666.70213 250000.002
          233333.30187 216666.70173 200000.0016 97222.000778 83333.000667 83333.000667
          97222.000778 77778.000622 66667.000533 66667.000533 77778.000622 58333.000467
          50000.0004 50000.0004 58333.000467 38889.000311 33333.000267 33333.000267
          38889.000311 19444.000156 16667.000133 16667.000133 19444.000156 0
          0 0 0 97222.000778 83333.000667 77778.000622
          66667.000533 58333.000467 50000.0004 38889.000311 33333.000267 19444.000156
          16667.000133 0 0 111111.00089 111111.00089 88889.000711
          88889.000711 66667.000533 66667.000533 44444.000356 44444.000356 22222.000178
          22222.000178 0 0 111111.00089 88889.000711 66667.000533
          44444.000356 22222.000178 0 125000.001 125000.001 100000.0008
          100000.0008 75000.0006 75000.0006 50000.0004 50000.0004 25000.0002
          25000.0002 0 0 125000.001 100000.0008 75000.0006
          50000.0004 25000.0002 0 138889.00111 138889.00111 111111.00089
          111111.00089 83333.000667 83333.000667 55556.000444 55556.000444 27778.000222
          27778.000222 0 0 138889.00111 111111.00089 83333.000667
          55556.000444 27778.000222 0 152778.00122 152778.00122 122222.00098
          122222.00098 91667.000733 91667.000733 61111.000489 61111.000489 30556.000244
          30556.000244 0 0 152778.00122 122222.00098 91667.000733
          61111.000489 30556.000244 0 166667.00133 166667.00133 133333.00107
          133333.00107 100000.0008 100000.0008 66667.000533 66667.000533 33333.000267
          33333.000267 0 0 166667.00133 133333.00107 100000.0008
          66667.000533 33333.000267 0 277777.80222 277777.80222 300000.0024
          300000.0024 255555.60204 255555.50204 233333.30187 233333.30187 211111.10169
          211111.10169 188889.00151 188889.00151 277777.80222 300000.0024 255555.60204
          233333.30187 211111.10169 188889.00151 272222.20218 272222.20218 300000.0024
          300000.0024 244444.40196 244444.40196 216666.70173 216666.70173 188889.00151
          188889.00151 161111.00129 161111.00129 272222.20218 300000.0024 244444.40196
          216666.70173 188889.00151 161111.00129 266666.70213 266666.70213 300000.0024
          300000.0024 233333.30187 233333.30187 200000.0016 200000.0016 166667.00133
          166667.00133 133333.00107 133333.00107 266666.70213 300000.0024 233333.30187
          200000.0016 166667.00133 133333.00107 261111.10209 261111.10209 300000.0024
          300000.0024 222222.20178 222222.20178 183333.00147 183333.00147 144444.00116
          144444.00116 105556.00084 105556.00084 261111.10209 300000.0024 222222.20178
          183333.00147 144444.00116 105556.00084 255555.50204 255555.50204 300000.0024
          300000.0024 211111.10169 211111.10169 166667.00133 166667.00133 122222.00098
          122222.00098 77778.000622 77778.000622 255555.50204 300000.0024 211111.10169
          166667.00133 122222.00098 77778.000622 250000.002 250000.002 300000.0024
          300000.0024 200000.0016 200000.0016 150000.0012 150000.0012 100000.0008
          100000.0008 50000.0004 50000.0004 250000.002 300000.0024 200000.0016
          150000.0012 100000.0008 50000.0004 250000.002 250000.002 300000.0024
          300000.0024 200000.0016 200000.0016 150000.0012 150000.0012 100000.0008
          100000.0008 50000.0004 50000.0004 0 0 250000.002
          300000.0024 200000.0016 150000.0012 100000.0008 50000.0004 0
          250000.002 250000.002 300000.0024 300000.0024 200000.0016 200000.0016
          150000.0012 150000.0012 100000.0008 100000.0008 50000.0004 50000.0004
          0 0 250000.002 300000.0024 200000.0016 150000.0012
          100000.0008 50000.0004 0 250000.002 250000.002 300000.0024
          300000.0024 200000.0016 200000.0016 150000.0012 150000.0012 100000.0008
          100000.0008 50000.0004 50000.0004 0 0 250000.002
          300000.0024 200000.0016 150000.0012 100000.0008 50000.0004 0
          250000.002 250000.002 300000.0024 300000.0024 200000.0016 200000.0016
          150000.0012 150000.0012 100000.0008 100000.0008 50000.0004 50000.0004
          0 0 250000.002 300000.0024 200000.0016 150000.0012
          100000.0008 50000.0004 0 250000.002 250000.002 300000.0024
          300000.0024 200000.0016 200000.0016 150000.0012 150000.0012 100000.0008
          100000.0008 50000.0004 50000.0004 0 0 250000.002
          300000.0024 200000.0016 150000.0012 100000.0008 50000.0004 0
          250000.002 250000.002 300000.0024 300000.0024 200000.0016 200000.0016
          150000.0012 150000.0012 100000.0008 100000.0008 50000.0004 50000.0004
          0 0 250000.002 300000.0024 200000.0016 150000.0012
          100000.0008 50000.0004 0
        </DataArray>
        <DataArray type="Float64" Name="q" NumberOfComponents="3" format="ascii" RangeMin="1.0868972281e-22" RangeMax="9.0857505432e-19">
          4.8789063932e-22 2.7060179381e-22 -3.342446203e-22 4.8316042911e-22 2.6126447114e-22 -1.9722531916e-22
          -6.2715122349e-22 -7.2751060212e-22 -2.5760523995e-22 -9.5021200286e-22 -5.9592211048e-22 -2.2214245961e-22
          -1.2440509363e-21 3.3961489838e-22 -1.5189070488e-21 1.6393008046e-22 2.9839055875e-22 -1.2544638641e-21
          -9.5040920417e-22 -5.4617675987e-22 -3.408154681e-22 -6.9604903384e-22 -3.4166168333e-22 -7.4217227408e-23
          1.7656483847e-22 2.7648007546e-22 7.1814961873e-22 5.5454906352e-23 1.2986153153e-22 7.002443258e-22
          -6.9047500549e-22 -4.7407153094e-22 1.9428145795e-22 -4.1923423029e-22 -4.0501999496e-22 -5.8479476115e-23
          -9.6979495556e-22 1.3895188586e-22 4.1988948704e-22 6.0049170995e-23 1.1235817964e-22 3.645277749e-22
          -4.4094665539e-22 -4.0110729499e-22 -4.6542614163e-23 7.6378526214e-23 -3.9065962846e-22 -1.2632472979e-23
          3.1682068137e-22 5.3914146073e-23 4.0451659699e-22 -3.0707922967e-22 -2.2848199465e-23 1.0644742378e-22
          -4.0458024981e-22 -2.5395027269e-22 -5.0526725682e-22 -3.3234417563e-22 -3.1206582099e-22 -4.7122980999e-22
          5.3679559934e-22 3.2349179507e-23 2.4400548891e-22 6.5664557285e-22 -3.6123262459e-23 7.3130559284e-24
          -6.6728440695e-22 -1.6678984658e-22 -7.6210866285e-23 -4.0400280431e-23 -3.4617268927e-23 -1.4545648216e-22
          -1.9778101643e-21 -4.1822125804e-21 -1.4079876718e-20 7.8008116429e-20 -3.9902134905e-21 5.4105231464e-20
          -4.0195585232e-20 -1.2473228227e-20 -1.8632881029e-20 1.910976223e-20 -6.7389559727e-21 2.4573321248e-20
          -5.3892195032e-22 1.1456191466e-21 -9.0525781206e-22 -1.1349679389e-21 1.2529049821e-21 -8.6710578182e-22
          -2.8420856803e-22 1.0178203132e-21 -6.0171237477e-22 -1.2785239764e-22 1.1414222939e-21 -4.9963414571e-22
          5.2596580676e-22 9.7461070952e-22 -4.0907675018e-22 1.9329088134e-21 6.9807948739e-22 -7.8649160937e-22
          -3.5983407322e-22 6.3349943946e-22 -7.7515716424e-22 -6.3579641871e-22 6.3309011308e-22 -1.1622606352e-21
          -3.6949938643e-22 4.5994502735e-22 -1.0718646568e-21 1.1489325512e-21 2.192288641e-22 -9.8146867835e-22
          -8.3099398755e-22 7.0738399421e-23 -9.3492606418e-22 2.2369509877e-22 1.1213362494e-22 -9.9134367853e-23
          -1.3589853821e-20 -5.263238259e-22 -6.5763690821e-21 -2.6776623397e-20 4.8342236604e-21 -1.8311306338e-20
          1.3108402878e-21 3.4079628041e-22 8.9409726969e-22 -1.3648806735e-21 -5.1998957225e-22 7.6906477313e-23
          4.8728125535e-22 3.3599758218e-22 5.3597892549e-22 -3.9455007536e-22 -6.0912090994e-22 -5.4144392846e-23
          4.9576772276e-24 2.4908820727e-22 2.2698676549e-22 2.6264050431e-22 -3.7269921057e-22 5.865770403e-22
          3.1487988242e-23 1.2882794594e-22 3.619317192e-22 -7.1092975701e-22 -6.7135644809e-22 -1.4880723164e-23
          9.5352696814e-22 3.7744626741e-23 1.0178009725e-21 1.2158275825e-22 -1.6606553056e-22 -4.2680814035e-22
          -5.0145388183e-22 -5.0004253866e-23 1.4104403586e-23 4.1417566737e-22 -1.4376134847e-22 1.4186360702e-22
          6.3561569367e-21 -4.438154527e-21 -8.0820744561e-21 -2.8204818324e-20 -8.4437397726e-21 -5.00300305e-21
          -3.0337694098e-22 1.1588062968e-21 -5.338920924e-22 -1.2989849707e-21 1.3004063465e-21 -4.440985308e-22
          -1.0692282468e-21 7.7521961852e-22 -5.7758403956e-22 -3.3930942604e-22 9.6296226418e-22 -8.8268211601e-22
          -8.4370716908e-22 2.5127522222e-22 -1.3100926732e-21 -5.6305112191e-22 -1.8645731256e-23 -8.4375376618e-22
          9.504576293e-21 1.6446572304e-23 9.9390395002e-21 9.5226118489e-22 3.5322281512e-22 -8.1494254219e-22
          -6.7042234806e-22 4.1821350003e-23 9.2296423092e-23 8.0095775278e-22 2.3317798136e-22 -4.0933136149e-22
          -5.8409747736e-22 -1.7066858818e-22 -1.9048056861e-21 -9.1221681965e-22 1.6231352335e-22 -4.4678778071e-22
          -6.8342280369e-22 -4.1170847804e-22 5.9496762422e-22 5.0883683341e-22 1.9267262785e-22 3.7157373386e-22
          -8.8873125553e-22 -3.3637352143e-22 3.2866724642e-23 -5.5521635771e-22 6.5324464564e-23 2.9627897847e-22
          6.460874473e-22 -3.5584700456e-22 1.0545639896e-23 -1.3788257209e-22 -3.8537458798e-23 2.7123453237e-22
          -2.298840296e-22 -2.7716276214e-22 -4.8848608899e-22 -3.1087596113e-21 -2.7211731361e-21 -1.1625770713e-20
          -1.9923981741e-20 -3.2403453027e-21 2.7798157932e-20 -8.3719997411e-22 7.018474078e-22 -5.1140959056e-22
          -3.7590881713e-22 6.3702455091e-22 -1.795871232e-22 -9.6412544797e-22 7.3137244106e-22 -3.7801727601e-22
          -1.0299924457e-21 6.9369167625e-22 -3.0449565963e-22 -3.9696598548e-22 4.6629735418e-22 -1.301447478e-21
          -1.6790487256e-22 2.1096366297e-22 -1.1848363312e-21 2.6397687561e-20 -3.6122747016e-21 -8.5085701505e-23
          -2.8110512654e-23 3.0934167928e-22 1.6458333633e-24 4.5290140944e-22 -1.5585037533e-22 -1.6591123368e-22
          -6.0492561798e-22 3.6361904935e-22 9.1105234028e-22 -1.9765138092e-21 -2.3296372433e-22 3.9514624935e-22
          3.92932947e-22 2.1300987665e-22 -4.3762087721e-22 -1.5447977101e-21 -3.2255852391e-22 6.1538826429e-22
          4.1749063265e-22 1.1315459982e-22 6.9864508954e-22 -7.3139699419e-23 -4.1906558091e-22 1.1750545253e-21
          4.908445891e-22 8.1605947602e-24 7.5353169052e-22 -5.178997298e-22 -4.0648474932e-22 2.114104313e-22
          1.1011043948e-21 4.3546331209e-24 8.7853342115e-22 -5.2888636942e-22 -2.501179191e-22 -9.5534670426e-22
          1.233456704e-20 4.1930562317e-21 -1.0731160875e-20 7.8173982859e-21 4.3259073367e-21 1.3265055686e-20
          -1.7230541427e-21 6.6759414323e-22 -1.2331861959e-21 -6.367699396e-22 1.0778904977e-21 -4.6746303209e-22
          -8.2391848721e-22 7.2918514048e-22 -7.6442513593e-22 -9.5339966248e-22 7.057647899e-22 -4.200633898e-22
          -8.3246591816e-22 5.0911162185e-22 -2.5864865649e-22 -7.5163124585e-22 2.635468888e-22 -1.1767935528e-21
          -8.5033576143e-21 4.3580019496e-21 -3.3543875694e-20 2.8121156075e-22 1.9136984134e-22 -3.7671924816e-22
          -3.9707082896e-22 -1.0585269844e-23 5.7783865087e-22 9.2841658418e-22 3.3187915303e-22 9.7178006658e-22
          -9.4098144654e-22 -2.3279834943e-23 1.5933788875e-21 1.7259204167e-21 2.4530039535e-22 -6.6953265714e-22
          6.1758657185e-23 7.8025195958e-24 8.9097950572e-23 8.8435124792e-22 1.3290300395e-22 3.7706705367e-22
          -5.2331234106e-22 -2.7143557942e-22 9.3423045316e-22 1.870942142e-21 9.5065315565e-23 8.7472004615e-22
          -1.7798971497e-21 -1.4915180369e-22 1.1712036933e-22 1.1828085809e-21 -1.4754560027e-23 5.8497780404e-22
          -1.541575939e-21 -1.3222798825e-22 -5.494684266e-22 -5.5236660472e-21 2.3507107225e-21 -4.8538696386e-21
          -2.3309253869e-22 7.1552209468e-21 -1.2177241919e-20 -1.6083388706e-21 4.5713237355e-22 9.8090951311e-23
          -1.4433343835e-21 6.2701455359e-22 -1.4477268768e-21 -4.6863375429e-22 5.0628383521e-22 7.7881670961e-24
          -1.8477640291e-21 5.0515971012e-22 -2.0795734747e-22 -1.602049054e-21 3.6612019707e-22 -1.043146627e-21
          -1.4728054343e-21 9.0732705918e-23 -3.6123610817e-22 -1.7022429801e-20 -3.5295461746e-21 1.170402761e-20
          -2.0957213177e-21 7.2501720191e-22 7.1973271328e-21 4.3679835631e-21 1.9546226872e-22 3.0345224308e-22
          -3.4285341904e-22 1.9303317923e-21 3.282898339e-21 2.725618895e-21 1.0446100297e-21 1.4907777912e-20
          -1.8841304347e-21 1.1152108743e-21 -8.8873125553e-22 -2.8321174859e-21 7.7293917976e-22 -5.759382062e-22
          3.5726347865e-21 -1.1776378272e-23 1.8649329085e-22 1.2432475845e-21 -8.2877611513e-23 -3.3828032318e-21
          -4.6658453344e-21 8.2812766495e-22 3.1082304356e-21 1.1702784423e-21 1.2793184942e-21 -3.3423213464e-22
          2.5018476577e-21 3.0545284912e-22 -1.9989093596e-21 -6.5396131721e-21 2.9347734666e-22 3.7012726439e-21
          -4.9517203958e-21 -2.2020803041e-21 2.5948367487e-20 -2.1688578137e-21 -6.6366234393e-22 -1.6530400102e-20
          -6.7089663463e-24 1.1021694372e-21 -8.0614208305e-21 -8.2627823589e-21 3.5585986058e-21 -1.4109883635e-20
          -6.5162736421e-22 8.6902640362e-22 -4.8725762224e-21 6.6963254239e-23 7.6468713258e-22 -5.7612825066e-21
          -2.2297902087e-21 -4.182483358e-23 1.2785239764e-21 -7.927953602e-22 5.5697297125e-23 6.8714588179e-22
          -1.4260806534e-20 -4.5588506734e-22 1.0852875997e-20 -3.8048847514e-22 -1.402159277e-20 1.7718730101e-20
          6.7377089015e-21 -3.7753034829e-21 6.6013720086e-20 4.6382109858e-20 -7.0617298196e-21 -2.63633547e-20
          -1.1460186555e-20 -2.2750061676e-20 -4.3287718522e-20 1.1051673869e-20 -5.3892769132e-21 3.8453251078e-20
          1.7609322985e-20 -9.0816372649e-21 1.6451162895e-20 -4.8026491299e-20 -5.7582637315e-21 -3.4008910778e-20
          -2.8129364601e-20 -6.0469948757e-22 -5.1315254182e-20 -1.0503919498e-20 -4.2252681103e-21 3.6929406529e-20
          -2.4591166257e-21 -7.8507242905e-21 -2.543866943e-22 -2.6331856019e-20 1.4497138246e-21 -3.8742518209e-20
          -7.8897583202e-21 6.1284313086e-21 -4.8048750852e-20 -1.2398365933e-20 -6.8786912854e-21 -2.5223672866e-21
          4.6645256807e-20 -1.2650902125e-21 -1.0979530092e-20 -3.6990220758e-20 3.946797885e-21 -1.9670164904e-20
          4.4408123017e-21 2.2745919673e-20 -5.6877708788e-20 -1.4319858756e-20 -3.6158848375e-22 -5.7811689528e-20
          8.4526984158e-21 -1.9668405804e-21 -1.710313227e-20 -3.1185088233e-20 5.4638976834e-21 2.4539512785e-20
          -2.9762617818e-21 1.526562002e-20 2.0167116491e-20 4.9355379204e-22 -7.6054353804e-22 -4.8599460673e-20
          -2.2664295058e-21 -2.6600514329e-21 -5.9356901834e-20 -2.0626308898e-21 -2.7842960206e-21 3.4651241484e-20
          1.0260662838e-22 -7.5096060613e-22 3.3519414728e-20 -4.8389407657e-21 -3.8538807649e-21 -1.917768664e-20
          -5.09332746e-20 -1.9739672479e-21 -8.0164058842e-21 2.8941624168e-21 -1.1785846616e-20 -1.2893901326e-20
          -4.215887398e-21 -1.1560896741e-20 -3.9611810709e-20 4.0352818296e-21 -1.4060719994e-20 -5.106305062e-20
          -5.8754723968e-21 -1.7138877738e-20 2.1175823681e-20 9.3952574728e-21 -3.6742353176e-20 -1.1238390108e-20
          -4.9829318641e-20 -6.1945491239e-21 1.5302241933e-20 1.8661768391e-20 -1.6113450912e-20 9.0588805332e-20
          -7.8170393715e-22 -9.6325151938e-21 -4.2484776453e-21 1.9932798342e-22 -6.7229012994e-22 9.8904117017e-20
          -1.2489988611e-21 -2.8321665321e-21 -1.2677270227e-20 3.9514624935e-21 -8.0894615295e-21 1.1129776448e-23
          -4.1012136151e-20 -1.6395414127e-20 -1.2511921744e-20 -7.6752176393e-21 -4.8092024978e-21 -2.1520632638e-21
          8.566716164e-22 -4.5774396493e-21 -4.0633138783e-20 -2.7239976087e-20 -2.4838583107e-21 -1.1314407895e-20
          3.5709740184e-21 -6.7685503249e-21 -2.4494993679e-20 -3.299914679e-20 -1.2874641372e-21 1.3018512e-20
          2.0142683602e-20 -9.4692691351e-21 -3.3428885409e-20 -8.5163660456e-21 7.5903749598e-22 1.1615550356e-20
          1.5830075297e-20 -8.6212503014e-22 -1.7571859875e-20 2.4872876478e-21 -1.1910593735e-21 -2.8519335003e-22
          2.9174986012e-21 -1.3453507848e-21 1.8947742631e-20 2.3110963361e-20 -1.1466343584e-21 -7.1805027134e-21
          7.4946120708e-21 -2.5505328422e-21 3.0558366596e-21 3.5211044191e-20 1.366933007e-21 -2.275582371e-21
          3.1595527888e-20 5.6839508608e-21 -4.0178416112e-21 1.6463059731e-20 3.2620933329e-21 -4.3472743884e-20
          1.5433341433e-21 -1.2508676434e-21 -4.3486456334e-20 1.5807341081e-20 -2.7111837416e-21 1.0549357164e-20
          -3.9058518215e-21 -7.636835969e-21 7.6232965253e-21 -2.0013190269e-21 -9.27293161e-21 -8.1450903386e-21
          -1.4742985009e-20 -7.689911974e-21 5.1772003243e-22 4.2165330664e-21 1.3027921029e-21 -1.8895075963e-20
          -1.2774109987e-20 -5.6542418062e-21 -1.6115885551e-20 2.8100385268e-21 -7.7610114375e-22 1.8754170166e-21
          -3.9275887696e-21 -4.8428580277e-21 1.1322262973e-21 -1.6297765072e-21 -1.4289799387e-21 -2.6849868536e-21
          9.0360194213e-23 -1.9180031189e-21 -2.0449327627e-20 1.8920334218e-21 -5.324667589e-22 -1.8800872404e-20
          3.3648979389e-21 -3.9987238972e-22 -5.0537183026e-20 -9.7631384463e-21 3.8559675979e-21 -1.5722776192e-20
          1.3217249812e-21 -1.0438508883e-20 1.4289061421e-20 1.0207423366e-20 8.9368922249e-21 1.3929341391e-20
          5.4962618764e-21 2.7777276219e-21 -2.4652594141e-20 4.5094596226e-21 -2.5905554476e-22 7.1536627819e-22
          1.411419554e-21 -4.5710378061e-22 1.1318267563e-21 1.0269728702e-20 -5.3026943098e-21 -5.6455283881e-21
          -2.5451433743e-20 -5.0574919028e-21 2.5632784865e-20 -7.5007227422e-21 -1.395898957e-21 -7.8421107576e-21
          -2.4638881691e-20 2.9172406444e-21 2.7072464065e-21 1.0093796226e-21 2.0750303772e-21 -2.267224333e-20
          -3.9099256024e-21 1.5089406473e-22 1.3597046262e-20 -5.4559913507e-21 4.0138177729e-22 -8.9617161712e-21
          -7.7835563676e-21 -7.2140026208e-21 2.5162566153e-21 -3.8390597367e-21 6.8593190801e-22 7.0199200369e-21
          -1.1507875249e-20 -4.9170411436e-21 -5.5695106012e-21 2.2994290026e-21 -9.9486498525e-22 9.1623446315e-21
          3.3463561177e-21 -9.7808381741e-22 -1.5900053533e-20 -1.4934374341e-21 -6.6392317912e-21 -1.5205056159e-20
          3.6829638082e-21 -3.5943750802e-21 2.2150449517e-20 -2.7316266766e-20 3.1452957978e-21 3.8606777759e-20
          -6.3114465443e-21 7.0403281913e-21 -4.179515854e-22 -5.2460254296e-21 6.3889895498e-21 -1.1094502097e-20
          1.7373917559e-21 -9.6579914995e-22 -3.0443501648e-20 1.1431616561e-20 2.6634362938e-21 -4.4277148373e-20
          -1.5001845025e-20 6.3256316564e-21 3.2768768472e-20 1.2451653298e-20 -5.9796922998e-21 -9.1334286241e-21
          6.6323755662e-21 -1.2084804152e-21 4.5690580297e-22 -1.2716760431e-20 -5.7259345463e-21 1.4945290004e-22
          3.9560089365e-21 1.5750450805e-21 -2.162974727e-20 3.4594118463e-21 -1.3822759074e-21 -1.5116617259e-20
          -1.0243395368e-20 -3.1471928969e-21 -3.5564624863e-22 9.3441650702e-21 8.5359298216e-22 -8.4994452505e-21
          -1.1252454606e-20 2.1919984696e-21 3.3896228963e-21 3.9123388554e-22 -1.0223781814e-21 -1.1400463892e-20
          8.6262756172e-22 -1.178346192e-21 -6.6293933516e-21 -1.7753210997e-20 -1.4219027656e-21 -1.8025783463e-20
          -1.8766391509e-20 -1.1072715206e-20 -3.3962793509e-21 -1.8396833039e-20 -1.1826340091e-20 1.9113890195e-20
          -1.8774775402e-20 5.5725659369e-22 3.3776384096e-20 -7.6149467439e-21 1.3390153717e-22 1.5764313083e-20
          4.5139575555e-22 -1.1426970232e-21 -5.0102536776e-21 2.7581710115e-20 4.2292029963e-22 -1.6004068767e-20
          9.2061181837e-21 7.3245800109e-21 -4.5611494238e-21 3.6119018017e-21 -3.3423586393e-21 -2.6208014078e-20
          1.722063342e-21 2.7456900568e-21 -2.6673468648e-22 -1.6474177798e-20 -2.2837878431e-21 2.6334884591e-21
          2.1898723867e-22 -3.2926377298e-21 -9.7093534482e-21 5.6117364124e-21 -3.785703925e-22 -5.6731798228e-22
          -4.0860346704e-21 9.6528056309e-22 -3.78263237e-21 4.9436586301e-21 -8.7695459163e-22 -7.1135827107e-21
          -4.5003534746e-21 2.9941846402e-21 1.2731368263e-20 -1.9101837484e-21 -5.8556156434e-21 1.9706192186e-20
          -2.2046211248e-21 -6.6858709525e-21 1.2465991917e-19 -1.9516438453e-20 -1.0523333731e-20 1.6692382922e-20
          6.8240110258e-21 -8.329175635e-21 -7.8032564253e-21 8.3063186835e-21 -7.6513612992e-22 -2.4752655072e-21
          -3.952108162e-21 -2.2705133233e-21 -2.958504644e-22 -5.3540038668e-21 -4.6808111626e-21 5.6541753761e-22
          5.4087050616e-22 -5.5419003151e-21 9.0721545725e-20 -4.1693146741e-22 1.6825724814e-22 1.273331865e-21
          -2.3683962604e-21 -2.6845059478e-21 3.0407114732e-23 5.7473516541e-23 1.4766063237e-21 6.4829226662e-21
          6.3752296063e-22 8.485606151e-23 1.906937109e-20 -5.7946584539e-21 1.5882799703e-21 2.838713305e-21
          1.4709049897e-21 7.9328295703e-22 -3.4144651228e-21 -1.309999479e-21 5.9122414487e-22 1.6055271092e-21
          -1.0272389747e-22 8.6056904547e-22 1.0862720968e-20 -3.0151452073e-21 1.7654466133e-22 -5.9791148543e-22
          7.1749378252e-21 3.4538810695e-22 -6.3602026409e-22 -5.3628445906e-21 3.6074081987e-22 4.7545488823e-21
          -1.3584425378e-21 1.1017005688e-21 2.6912972955e-21 -9.6233333556e-21 2.91254527e-21 3.9043607141e-21
          -9.648098219e-21 2.6157570689e-21 9.0904006256e-21 -5.2158013578e-21 2.398250901e-21 -5.6247599425e-21
          7.4950116118e-22 2.9193140954e-23 -8.110609443e-22 -2.7065008528e-21 2.8604535988e-22 -2.361238827e-21
          -8.8578739432e-22 -5.7240898389e-22 -1.4539374334e-21 -1.4382866335e-21 2.7985642904e-22 2.1539271479e-21
          -8.4855522066e-21 7.5703137145e-22 2.5618672874e-21 5.1260111417e-21 1.0924467139e-21 4.1009153936e-21
          5.8636403183e-21 1.4102704576e-21 2.0456383622e-21 1.1209351037e-21 3.9802021491e-22 1.23596864e-21
          6.5952121117e-22 5.8320466502e-22 4.5168300885e-21 -1.5822990537e-21 -9.3823478663e-22 1.4265856544e-21
          -5.1576696872e-21 -2.0893985323e-21 4.2095769561e-21 -3.8049284834e-21 -7.6141221544e-22 3.9203098252e-21
          5.1799292401e-22 -8.6974843462e-22 -3.9514624935e-22 -5.8097255655e-21 -5.2080240036e-22 2.9571999251e-21
          4.1431978384e-21 2.6389817789e-22 -2.3150823717e-22 -3.2250620822e-21 -2.0713443079e-22 -1.8103292357e-21
          -5.7925033979e-21 1.1336108283e-21 -1.0217062035e-20 -1.0046977135e-20 -1.9731851337e-22 -1.5114234356e-21
          -1.1622606352e-21 -7.6685977453e-23 -1.6968483386e-21 -3.9902169406e-21 -7.2870150145e-22 2.1155454777e-21
          -2.1805333733e-21 -1.2970021448e-21 9.7330773442e-22 -4.1158955538e-21 6.1676700069e-22 -2.2584150443e-21
          -7.7104258083e-22 4.6936347676e-22 -3.7812411479e-21 -2.0293198199e-21 -7.6564245523e-22 -7.5749034091e-21
          4.5392943101e-21 -7.0318818701e-22 -1.0118784695e-20 -1.9864383038e-21 -9.1206621544e-22 3.2269034441e-21
          -2.0944042553e-21 5.1921113974e-24 2.3577108292e-21 -3.9356863889e-22 -1.182274387e-22 2.5013990705e-22
          -5.9697490767e-21 3.5671630925e-22 2.7943939698e-21 1.325252979e-21 -6.1294821925e-22 -4.4238447455e-22
          -5.782187398e-21 -6.671105042e-22 2.3846898314e-21 -3.6175531931e-21 -5.8017967707e-22 8.7229789321e-22
          -4.4728835301e-21 -1.2116274964e-21 7.8092672114e-22 2.2955361436e-21 1.2758347265e-21 -2.2492490372e-22
          -5.7052809207e-21 -1.3340595913e-21 3.8891571568e-21 -2.6186077359e-21 -1.3987155126e-21 -8.2904694578e-22
          -4.1192741719e-21 -7.3378336292e-22 1.9861154696e-21 3.2210656643e-21 -3.6517054599e-22 -5.4015259166e-22
          -9.3974539875e-22 -1.2281089045e-22 2.4158424998e-21 -4.277477947e-21 1.2059463395e-21 2.736635076e-21
          -1.7786548591e-21 -6.6378472602e-22 -1.0435876267e-21 -2.451907697e-21 -3.2028000802e-22 -2.8331484168e-21
          -3.7937554554e-21 -1.0281727096e-21 -5.4849457116e-21 -2.288592519e-21 -2.1593647305e-22 1.713443118e-21
          -2.9102845341e-21 8.7549636573e-22 3.6566304744e-21 -2.4683410593e-21 -9.5541492715e-23 9.4113662081e-22
          -5.8342949004e-21 4.1560100088e-22 1.8103292357e-21 -2.1155887293e-21 2.1525833593e-22 5.048262571e-22
          -4.1237706723e-21 -2.9454619372e-22 -1.8858012394e-22 7.9351594254e-22 2.0975066363e-22 1.7909520122e-21
          -3.144388827e-21 7.1249404544e-22 9.6570595574e-22 -4.6791825585e-21 2.0459861677e-21 -3.1763735522e-22
          -5.2018458857e-21 -3.7785585891e-22 4.4428491922e-21 -1.22071514e-21 -1.4723303232e-21 -1.4774883231e-21
          -3.5168661861e-21 -8.891131725e-22 5.5112790454e-21 -2.5930199557e-21 8.4397114463e-22 3.9179001579e-21
          -3.9445063833e-22 8.6863858804e-24 -8.9756283917e-22 -2.8121935828e-21 4.2181323027e-22 1.2525634194e-21
          -1.1804887623e-21 -2.5795304546e-22 -4.3390069642e-21 -3.9134718804e-21 -1.5813272056e-21 -2.0636243637e-21
          -5.5298674637e-21 -1.755582426e-21 -9.8710544552e-21 -2.2676035736e-21 1.1316575437e-22 3.0481983204e-21
          -4.4763615852e-21 1.2883973038e-21 6.079229314e-22 -2.6942393638e-22 4.508526456e-22 8.1448905681e-22
          -4.4702874744e-21 1.0701489277e-21 1.6618947809e-21 -2.8413526123e-21 3.6861864156e-22 2.9282023127e-21
          -5.3297914775e-21 6.7092304281e-22 1.932989522e-21 -1.574059074e-21 1.045908935e-22 2.2087671518e-21
          -2.4582705306e-21 1.3134406839e-21 2.5670593987e-21 -4.8759918493e-21 8.2732040386e-22 2.1383508137e-21
          -1.7424157591e-21 -1.5049083251e-21 8.3112379034e-21 5.3451948054e-22 -1.3996657349e-21 2.1071981453e-21
          -4.7720256612e-21 3.2092902195e-22 3.0798602114e-21 -3.1765599406e-21 -4.098553548e-22 -7.290555498e-22
          -2.3984123181e-21 -1.0906719377e-21 1.2176098617e-21 1.3603219839e-19 3.6455734165e-20 1.4919483438e-19
          -5.2929764015e-20 2.9276340073e-21 6.0330329046e-20 -8.3653823378e-20 -3.0756454562e-20 -1.7992194363e-20
          -9.2150715889e-20 -3.7879669491e-20 -1.5816841346e-19 -9.9884182228e-20 3.2747945902e-20 2.0875954994e-19
          7.1645173043e-20 9.5955076691e-20 -4.9577136594e-21 -2.7840030559e-21 -2.0087955909e-20 -6.3445531857e-21
          2.2689430179e-19 6.2596657114e-20 1.5277962073e-19 3.9697541598e-20 1.7048605698e-20 7.8127454939e-20
          -5.8669466093e-20 2.1755394117e-20 7.8474462684e-20 -7.7763578419e-20 -9.9816594323e-21 1.0162904618e-19
          6.3034021827e-20 3.9102372135e-20 1.1412862352e-19 -1.9712285615e-19 5.6945956688e-20 8.393913579e-20
          -3.4740213266e-20 7.4066774952e-21 2.6222278381e-19 -4.743243913e-20 -4.3080007301e-20 -1.3803736168e-19
          2.4813695408e-19 -1.2848207511e-19 1.239209241e-19 -2.6840579465e-20 6.6354197008e-21 1.9363739814e-19
          8.7461185188e-20 -5.0290288056e-20 1.1726231509e-19 1.4434578945e-19 2.4483863903e-20 1.8289393611e-19
          -4.5747127632e-20 1.3514707327e-19 -4.7125407634e-20 -2.1512192592e-19 -1.9011539075e-20 2.9585338924e-19
          -6.5804651579e-20 -7.8105107571e-20 5.1551747589e-20 -1.8815137425e-19 1.1620369691e-20 2.8949845901e-19
          2.0180828941e-20 7.2058614746e-20 4.1353015468e-19 -1.0633846064e-19 -2.0896594761e-20 1.958025344e-19
          -5.8038052011e-20 2.3113146494e-20 1.324694349e-19 -5.999031266e-20 3.0555691208e-20 4.1004573557e-20