<VTKFile type="UnstructuredGrid" version="1.0" byte_order="LittleEndian" header_type="UInt64">
  <UnstructuredGrid>
    <Piece NumberOfPoints="80" NumberOfCells="80">
      <PointData>
        <DataArray type="UInt64" Name="bulk_node_ids" format="ascii" RangeMin="30" RangeMax="643">
          30 31 32 33 34 35
          36 37 38 39 574 575
          576 577 578 579 580 581
          582 583 584 585 586 587
          588 589 590 591 592 593
          594 595 596 597 598 599
          600 601 602 603 604 605
          606 607 608 609 610 611
          612 613 614 615 616 617
          618 619 620 621 622 623
          624 625 626 627 628 629
          630 631 632 633 634 635
          636 637 638 639 640 641
          642 643
        </DataArray>
        <DataArray type="Int32" Name="vtkOriginalPointIds" format="ascii" RangeMin="31" RangeMax="644">
          31 32 33 34 35 36
          37 38 39 40 575 576
          577 578 579 580 581 582
          583 584 585 586 587 588
          589 590 591 592 593 594
          595 596 597 598 599 600
          601 602 603 604 605 606
          607 608 609 610 611 612
          613 614 615 616 617 618
          619 620 621 622 623 624
          625 626 627 628 629 630
          631 632 633 634 635 636
          637 638 639 640 641 642
          643 644
        </DataArray>
      </PointData>
      <CellData>
        <DataArray type="Int32" Name="MaterialIDs" format="ascii" RangeMin="-1" RangeMax="-1">
          -1 -1 -1 -1 -1 -1
          -1 -1 -1 -1 -1 -1
          -1 -1 -1 -1 -1 -1
          -1 -1 -1 -1 -1 -1
          -1 -1 -1 -1 -1 -1
          -1 -1 -1 -1 -1 -1
          -1 -1 -1 -1 -1 -1
          -1 -1 -1 -1 -1 -1
          -1 -1 -1 -1 -1 -1
          -1 -1 -1 -1 -1 -1
          -1 -1 -1 -1 -1 -1
          -1 -1 -1 -1 -1 -1
          -1 -1 -1 -1 -1 -1
          -1 -1
        </DataArray>
        <DataArray type="UInt64" Name="bulk_element_ids" format="ascii" RangeMin="2695" RangeMax="3459">
          2695 2703 2711 2719 2727 2735
          2743 2751 2759 2767 2775 2783
          2791 2799 2807 2815 2823 2831
          2839 2847 2855 2863 2871 2879
          2887 2895 2903 2911 2919 2927
          2935 2943 2951 2959 2967 2975
          2983 2991 2999 3007 3112 3092
          3108 3103 3110 3121 3129 3137
          3145 3153 3161 3169 3177 3185
          3193 3231 3224 3229 3213 3233
          3307 3315 3323 3331 3339 3347
          3355 3363 3371 3379 3387 3395
          3403 3411 3419 3427 3435 3443
          3451 3459
        </DataArray>
        <DataArray type="Int32" Name="vtkOriginalCellIds" format="ascii" RangeMin="625" RangeMax="704">
          625 626 627 628 629 630
          631 632 633 634 635 636
          637 638 639 640 641 642
          643 644 645 646 647 648
          649 650 651 652 653 654
          655 656 657 658 659 660
          661 662 663 664 665 666
          667 668 669 670 671 672
          673 674 675 676 677 678
          679 680 681 682 683 684
          685 686 687 688 689 690
          691 692 693 694 695 696
          697 698 699 700 701 702
          703 704
        </DataArray>
      </CellData>
      <Points>
        <DataArray type="Float64" Name="Points" NumberOfComponents="3" format="ascii" RangeMin="0.52499997273" RangeMax="0.52500002569">
          0.3712310493 0.3712310493 -8.2429851678e-17 0 0.52499997616 -1.1657341229e-16
          -0.3712310493 0.3712310493 -8.2429851678e-17 -0.52499997616 0 0
          -0.40000000596 -0.34003674984 7.5503325778e-17 -0.22034710646 -0.47652089596 1.0580889408e-16
          0 -0.52499997616 1.1657341229e-16 0.22034710646 -0.47652089596 1.0580889408e-16
          0.40000000596 -0.34003674984 7.5503325778e-17 0.52499997616 0 0
          0.3409602344 0.39921313524 -8.8643122896e-17 0.30858725309 0.42473393679 -9.4309879192e-17
          0.27431175113 0.44763609767 -9.9395180457e-17 0.23834501207 0.46777841449 -1.0386767324e-16
          0.200908795 0.48503676057 -1.0769979587e-16 0.16223391891 0.49930468202 -1.1086791086e-16
          0.12255881727 0.51049423218 -1.133524901e-16 0.082128092647 0.51853638887 -1.1513820761e-16
          0.041191026568 0.52338159084 -1.1621405856e-16 -0.041191026568 0.52338159084 -1.1621405856e-16
          -0.082128092647 0.51853638887 -1.1513820761e-16 -0.12255881727 0.51049423218 -1.133524901e-16
          -0.16223391891 0.49930468202 -1.1086791086e-16 -0.200908795 0.48503676057 -1.0769979587e-16
          -0.23834501207 0.46777841449 -1.0386767324e-16 -0.27431175113 0.44763609767 -9.9395180457e-17
          -0.30858725309 0.42473393679 -9.4309879192e-17 -0.3409602344 0.39921313524 -8.8643122896e-17
          -0.39921313524 0.3409602344 -7.5708380543e-17 -0.42473393679 0.30858725309 -6.8520134698e-17
          -0.44763609767 0.27431175113 -6.0909444405e-17 -0.46777841449 0.23834501207 -5.2923224041e-17
          -0.48503676057 0.200908795 -4.4610714012e-17 -0.49930468202 0.16223391891 -3.6023166429e-17
          -0.51049423218 0.12255881727 -2.721352416e-17 -0.51853638887 0.082128092647 -1.8236099885e-17
          -0.52338159084 0.041191026568 -9.1462452208e-18 -0.52369749546 -0.03695814684 8.2063571139e-18
          -0.51979655027 -0.07373291254 1.6371995435e-17 -0.5133164525 -0.11014182866 2.445639883e-17
          -0.50428938866 -0.14600424469 3.2419454828e-17 -0.49276009202 -0.18114221096 4.0221650668e-17
          -0.47878581285 -0.2153813839 4.7824274295e-17 -0.46243590117 -0.24855187535 5.5189602966e-17
          -0.44379147887 -0.2804890871 6.2281088532e-17 -0.42294502258 -0.31103459001 6.9063552656e-17
          -0.36908134818 -0.37336841226 8.2904441591e-17 -0.33539488912 -0.40390008688 8.968383522e-17
          -0.29919323325 -0.43140283227 9.5790671455e-17 -0.26074784994 -0.45567044616 1.0117916419e-16
          -0.17829394341 -0.49379780889 1.0964513939e-16 -0.13490369916 -0.50737166405 1.1265914069e-16
          -0.090501800179 -0.51714062691 1.1482828619e-16 -0.045421212912 -0.52303147316 1.1613631682e-16
          0.045421212912 -0.52303147316 1.1613631682e-16 0.090501800179 -0.51714062691 1.1482828619e-16
          0.13490369916 -0.50737166405 1.1265914069e-16 0.17829394341 -0.49379780889 1.0964513939e-16
          0.26074784994 -0.45567044616 1.0117916419e-16 0.29919323325 -0.43140283227 9.5790671455e-17
          0.33539488912 -0.40390008688 8.968383522e-17 0.36908134818 -0.37336841226 8.2904441591e-17
          0.42294502258 -0.31103459001 6.9063552656e-17 0.44379147887 -0.2804890871 6.2281088532e-17
          0.46243590117 -0.24855187535 5.5189602966e-17 0.47878581285 -0.2153813839 4.7824274295e-17
          0.49276009202 -0.18114221096 4.0221650668e-17 0.50428938866 -0.14600424469 3.2419454828e-17
          0.5133164525 -0.11014182866 2.445639883e-17 0.51979655027 -0.07373291254 1.6371995435e-17
          0.52369749546 -0.03695814684 8.2063571139e-18 0.52338159084 0.041191026568 -9.1462452208e-18
          0.51853638887 0.082128092647 -1.8236099885e-17 0.51049423218 0.12255881727 -2.721352416e-17
          0.49930468202 0.16223391891 -3.6023166429e-17 0.48503676057 0.200908795 -4.4610714012e-17
          0.46777841449 0.23834501207 -5.2923224041e-17 0.44763609767 0.27431175113 -6.0909444405e-17
          0.42473393679 0.30858725309 -6.8520134698e-17 0.39921313524 0.3409602344 -7.5708380543e-17
        </DataArray>
      </Points>
      <Cells>
        <DataArray type="Int64" Name="connectivity" format="ascii" RangeMin="0" RangeMax="79">
          0 10 10 11 11 12
          12 13 13 14 14 15
          15 16 16 17 17 18
          18 1 1 19 19 20
          20 21 21 22 22 23
          23 24 24 25 25 26
          26 27 27 2 2 28
          28 29 29 30 30 31
          31 32 32 33 33 34
          34 35 35 36 36 3
          3 37 37 38 38 39
          39 40 40 41 41 42
          42 43 43 44 44 45
          45 4 4 46 46 47
          47 48 48 49 49 5
          5 50 50 51 51 52
          52 53 53 6 6 54
          54 55 55 56 56 57
          57 7 7 58 58 59
          59 60 60 61 61 8
          8 62 62 63 63 64
          64 65 65 66 66 67
          67 68 68 69 69 70
          70 9 9 71 71 72
          72 73 73 74 74 75
          75 76 76 77 77 78
          78 79 79 0
        </DataArray>
        <DataArray type="Int64" Name="offsets" format="ascii" RangeMin="2" RangeMax="160">
          2 4 6 8 10 12
          14 16 18 20 22 24
          26 28 30 32 34 36
          38 40 42 44 46 48
          50 52 54 56 58 60
          62 64 66 68 70 72
          74 76 78 80 82 84
          86 88 90 92 94 96
          98 100 102 104 106 108
          110 112 114 116 118 120
          122 124 126 128 130 132
          134 136 138 140 142 144
          146 148 150 152 154 156
          158 160
        </DataArray>
        <DataArray type="UInt8" Name="types" format="ascii" RangeMin="3" RangeMax="3">
          3 3 3 3 3 3
          3 3 3 3 3 3
          3 3 3 3 3 3
          3 3 3 3 3 3
          3 3 3 3 3 3
          3 3 3 3 3 3
          3 3 3 3 3 3
          3 3 3 3 3 3
          3 3 3 3 3 3
          3 3 3 3 3 3
          3 3 3 3 3 3
          3 3 3 3 3 3
          3 3 3 3 3 3
          3 3
        </DataArray>
      </Cells>
    </Piece>
  </UnstructuredGrid>
</VTKFile>
