<?xml version="1.0"?>
<VTKFile type="UnstructuredGrid" version="0.1" byte_order="LittleEndian" header_type="UInt32">
  <UnstructuredGrid>
    <FieldData>
      <DataArray type="Int8" Name="IntegrationPointMetaData" NumberOfTuples="237" format="ascii" RangeMin="34" RangeMax="125">
        123 34 105 110 116 101
        103 114 97 116 105 111
        110 95 112 111 105 110
        116 95 97 114 114 97
        121 115 34 58 91 123
        34 105 110 116 101 103
        114 97 116 105 111 110
        95 111 114 100 101 114
        34 58 50 44 34 110
        97 109 101 34 58 34
        115 105 103 109 97 95
        105 112 34 44 34 110
        117 109 98 101 114 95
        111 102 95 99 111 109
        112 111 110 101 110 116
        115 34 58 54 125 44
        123 34 105 110 116 101
        103 114 97 116 105 111
        110 95 111 114 100 101
        114 34 58 50 44 34
        110 97 109 101 34 58
        34 101 112 115 105 108
        111 110 95 105 112 34
        44 34 110 117 109 98
        101 114 95 111 102 95
        99 111 109 112 111 110
        101 110 116 115 34 58
        54 125 44 123 34 105
        110 116 101 103 114 97
        116 105 111 110 95 111
        114 100 101 114 34 58
        50 44 34 110 97 109
        101 34 58 34 101 112
        115 105 108 111 110 95
        109 95 105 112 34 44
        34 110 117 109 98 101
        114 95 111 102 95 99
        111 109 112 111 110 101
        110 116 115 34 58 54
        125 93 125
      </DataArray>
      <DataArray type="Int8" Name="OGS_VERSION" NumberOfTuples="40" format="ascii" RangeMin="45" RangeMax="121">
        54 46 50 46 48 45
        49 53 45 103 53 51
        56 49 101 101 99 99
        100 46 100 105 114 116
        121 46 50 48 49 57
        48 52 48 49 49 53
        48 52 49 50
      </DataArray>
      <DataArray type="Float64" Name="epsilon_ip" NumberOfComponents="6" NumberOfTuples="1728" format="ascii" RangeMin="0.003464101615" RangeMax="0.0034641016152">
        -0.0019999999999 -0.0019999999999 -0.0020000000001 -2.0104734941e-15 4.2126278315e-15 4.2116886893e-15
        -0.0019999999999 -0.0019999999999 -0.0020000000001 -2.3218278885e-15 2.3475105533e-15 2.3463222509e-15
        -0.0019999999999 -0.0019999999999 -0.0020000000001 -3.0560071088e-15 -4.2513914057e-16 -4.2430062073e-16
        -0.0019999999999 -0.0019999999999 -0.0020000000001 -5.9521300466e-15 7.9919134026e-15 2.7392861874e-15
        -0.0019999999999 -0.0019999999999 -0.0020000000001 -6.5792087216e-15 2.5241267887e-15 1.4977976741e-15
        -0.0019999999999 -0.0019999999999 -0.0020000000001 -8.3551841539e-15 -3.8502483071e-15 -2.8398510694e-16
        -0.0019999999999 -0.0019999999999 -0.0020000000001 -1.037364994e-14 1.2307597718e-14 1.8675849223e-15
        -0.0019999999999 -0.0019999999999 -0.0020000000001 -1.1092457894e-14 3.2380186204e-15 9.5504055383e-16
        -0.0019999999999 -0.0019999999999 -0.0020000000001 -1.3686637025e-14 -6.7380483365e-15 -1.3362172972e-16
        -0.0019999999999 -0.0019999999999 -0.0020000000001 -5.9468785166e-15 2.740148665e-15 7.9861970931e-15
        -0.0019999999999 -0.0019999999999 -0.0020000000001 -6.5725388953e-15 1.4979893358e-15 2.5234943052e-15
        -0.0019999999999 -0.0019999999999 -0.0020000000001 -8.348341832e-15 -2.8511591083e-16 -3.844004928e-15
        -0.0019999999999 -0.0019999999999 -0.0020000000001 -1.1096482789e-14 7.0934753336e-15 7.0868438396e-15
        -0.0019999999999 -0.0019999999999 -0.0020000000001 -1.1516873511e-14 2.6807718774e-15 2.6801202277e-15
        -0.0019999999999 -0.0019999999999 -0.0020000000001 -1.3813363726e-14 -2.2722258465e-15 -2.2674918031e-15
        -0.0019999999999 -0.0019999999999 -0.0020000000001 -1.6725241254e-14 1.1759363865e-14 6.5293191871e-15
        -0.0019999999999 -0.0019999999999 -0.0020000000001 -1.6716578146e-14 4.176346276e-15 2.8817674782e-15
        -0.0019999999999 -0.0019999999999 -0.0020000000001 -1.931014396e-14 -3.9473489042e-15 -9.4126966233e-16
        -0.0019999999999 -0.0019999999999 -0.0020000000001 -1.0362916886e-14 1.8677813755e-15 1.2298354834e-14
        -0.0019999999999 -0.0019999999999 -0.0020000000001 -1.1080268211e-14 9.5455181656e-16 3.2377790433e-15
        -0.0019999999999 -0.0019999999999 -0.0020000000001 -1.3673671113e-14 -1.3508315001e-16 -6.7275165274e-15
        -0.0019999999999 -0.0019999999999 -0.0020000000001 -1.6719721398e-14 6.5344748862e-15 1.1749033301e-14
        -0.0019999999999 -0.0019999999999 -0.0020000000001 -1.6710444972e-14 2.881978306e-15 4.175541297e-15
        -0.0019999999999 -0.0019999999999 -0.0020000000001 -1.930389579e-14 -9.4677035247e-16 -3.9376508234e-15
        -0.0019999999999 -0.0019999999999 -0.0020000000001 -2.3556446749e-14 1.129182437e-14 1.1280674452e-14
        -0.0019999999999 -0.0019999999999 -0.0020000000001 -2.259645174e-14 4.8991024603e-15 4.898038738e-15
        -0.0019999999999 -0.0019999999999 -0.0020000000001 -2.4966540039e-14 -1.6691815457e-15 -1.6598667882e-15
        -0.0019999999999 -0.0019999999999 -0.0020000000001 -1.3921844235e-14 1.2940248956e-14 6.7181251052e-16
        -0.0019999999999 -0.0019999999999 -0.0020000000001 -1.4167937829e-14 2.4611371785e-15 3.6975370743e-16
        -0.0019999999999 -0.0019999999999 -0.0020000000001 -1.6700631895e-14 -8.4680728817e-15 -6.6966589974e-17
        -0.002 -0.0019999999999 -0.0020000000001 -1.8732284004e-14 1.9807520387e-14 -2.6782036109e-15
        -0.002 -0.0019999999999 -0.0020000000001 -1.7221491668e-14 5.1516071368e-15 -1.15813485e-15
        -0.002 -0.0019999999999 -0.0020000000001 -1.8482280512e-14 -9.9531298458e-15 2.7407619823e-18
        -0.002 -0.0019999999999 -0.0020000000001 -2.4228048431e-14 2.7165747578e-14 -5.6021797819e-15
        -0.002 -0.0019999999999 -0.0020000000001 -2.1079411234e-14 8.3360563185e-15 -2.474563079e-15
        -0.002 -0.0019999999999 -0.0020000000001 -2.118788216e-14 -1.0944744239e-14 6.9213823137e-17
        -0.0019999999999 -0.0019999999999 -0.0020000000001 -2.3379734682e-14 1.0001212969e-14 6.1550230979e-15
        -0.0019999999999 -0.0019999999999 -0.0020000000001 -2.3706556174e-14 2.5755112843e-15 3.1536778994e-15
        -0.0019999999999 -0.0019999999999 -0.0020000000001 -2.7253907158e-14 -5.5239195276e-15 1.8092862317e-17
        -0.002 -0.0019999999999 -0.0020000000001 -2.7539904713e-14 1.6262876624e-14 5.3350369448e-15
        -0.002 -0.0019999999999 -0.0020000000001 -2.7560335848e-14 4.9312632897e-15 3.8481448202e-15
        -0.002 -0.0019999999999 -0.0020000000001 -3.1284667224e-14 -7.0755358006e-15 2.002117045e-15
        -0.002 -0.0019999999999 -0.0020000000001 -3.2385533565e-14 2.3140866734e-14 4.7145945553e-15
        -0.002 -0.0019999999999 -0.0020000000001 -3.2220129538e-14 7.9010993085e-15 4.5269338158e-15
        -0.002 -0.0019999999999 -0.0020000000001 -3.6241766508e-14 -8.0110556126e-15 3.7560561759e-15
        -0.0019999999999 -0.0019999999999 -0.0020000000001 -3.3089468573e-14 9.7217702438e-15 1.1722641488e-14
        -0.0019999999999 -0.0019999999999 -0.0020000000001 -3.370148264e-14 4.1072330753e-15 6.021319912e-15
        -0.0019999999999 -0.0019999999999 -0.0020000000001 -3.846565528e-14 -2.404050748e-15 1.8625681779e-16
        -0.002 -0.0019999999999 -0.0020000000001 -3.6598180563e-14 1.7056662626e-14 1.3635578355e-14
        -0.002 -0.0019999999999 -0.0020000000001 -3.8355258154e-14 7.8049234789e-15 9.1412270239e-15
        -0.002 -0.0019999999999 -0.0020000000001 -4.4746523435e-14 -2.343140667e-15 4.2882958616e-15
        -0.002 -0.0019999999999 -0.0020000000001 -4.0794488403e-14 2.5125964222e-14 1.5522286321e-14
        -0.002 -0.0019999999999 -0.0020000000001 -4.3813763551e-14 1.2237368088e-14 1.201848087e-14
        -0.002 -0.0019999999999 -0.002 -5.1954353708e-14 -1.5511179527e-15 7.9320910017e-15
        -0.002 -0.0019999999999 -0.0020000000001 -2.5203970525e-14 1.5292690006e-14 -6.2464073856e-15
        -0.002 -0.0019999999999 -0.0020000000001 -2.171143478e-14 7.523104149e-16 -2.6770536409e-15
        -0.002 -0.0019999999999 -0.002 -2.1747467176e-14 -1.4148498543e-14 1.9212166511e-16
        -0.002 -0.0019999999999 -0.002 -2.7622970884e-14 2.4403629694e-14 -5.8234100642e-15
        -0.002 -0.0019999999999 -0.002 -2.4120698726e-14 3.9922456521e-15 -2.2184455799e-15
        -0.002 -0.0019999999999 -0.002 -2.5014532123e-14 -1.6780746476e-14 5.0585266433e-16
        -0.002 -0.0019999999999 -0.002 -3.09296523e-14 3.4033167547e-14 -5.421447612e-15
        -0.002 -0.0019999999999 -0.002 -2.7546689536e-14 7.7460066794e-15 -1.8040347017e-15
        -0.002 -0.0019999999999 -0.002 -2.9427312244e-14 -1.8905709072e-14 7.5266978054e-16
        -0.002 -0.0019999999999 -0.0020000000001 -2.8658633922e-14 1.2141268923e-14 4.4873365133e-15
        -0.002 -0.0019999999999 -0.0020000000001 -2.8837262605e-14 9.9422578371e-16 4.8754897417e-15
        -0.002 -0.0019999999999 -0.002 -3.3066392507e-14 -1.069362911e-14 4.5627745494e-15
        -0.002 -0.0019999999999 -0.002 -3.0707957238e-14 2.0860667762e-14 4.0210236529e-15
        -0.002 -0.0019999999999 -0.002 -3.046884013e-14 4.6835980706e-15 5.2126226317e-15
        -0.002 -0.0019999999999 -0.002 -3.5145461715e-14 -1.2033344233e-14 5.5240920231e-15
        -0.002 -0.0019999999999 -0.002 -3.3649024839e-14 3.0219334958e-14 3.2793600442e-15
        -0.002 -0.0019999999999 -0.002 -3.311814116e-14 9.0111654098e-15 5.2519324417e-15
        -0.002 -0.0019999999999 -0.002 -3.8367122011e-14 -1.2743067423e-14 6.164174943e-15
        -0.002 -0.0019999999999 -0.002 -3.2405389715e-14 1.2035969998e-14 1.5793918833e-14
        -0.002 -0.0019999999999 -0.002 -3.6332000826e-14 4.5286587708e-15 1.3001101539e-14
        -0.002 -0.0019999999999 -0.002 -4.4839326019e-14 -3.6994920234e-15 9.5066875098e-15
        -0.002 -0.0019999999999 -0.002 -3.4087565922e-14 2.0206008971e-14 1.4517701223e-14
        -0.002 -0.0019999999999 -0.002 -3.718803854e-14 8.5100851213e-15 1.3297142165e-14
[...]
      <PointData>
        <DataArray type="Float64" Name="displacement" NumberOfComponents="3" format="ascii" RangeMin="0" RangeMax="0.0034641016151">
          -0.0005 -0.0005 -0.0005 0 -0.0005 -0.0005
          0 0 -0.0005 -0.0005 0 -0.0005
          -0.0005 -0.0005 0 0 -0.0005 0
          0 0 0 -0.0005 0 0
          -0.0005 -0.001 -0.0005 0 -0.001 -0.0005
          -0.0005 -0.001 0 0 -0.001 0
          -0.0005 -0.0015 -0.0005 0 -0.0015 -0.0005
          -0.0005 -0.0015 0 0 -0.0015 0
          -0.0005 -0.002 -0.0005 0 -0.002 -0.0005
          -0.0005 -0.002 0 0 -0.002 0
          -0.001 -0.0005 -0.0005 -0.001 0 -0.0005
          -0.001 -0.0005 0 -0.001 0 0
          -0.001 -0.001 -0.0005 -0.001 -0.001 0
          -0.001 -0.0015 -0.0005 -0.001 -0.0015 0
          -0.001 -0.002 -0.0005 -0.001 -0.002 0
          -0.0015 -0.0005 -0.0005 -0.0015 0 -0.0005
          -0.0015 -0.0005 0 -0.0015 0 0
          -0.0015 -0.001 -0.0005 -0.0015 -0.001 0
          -0.0015 -0.0015 -0.0005 -0.0015 -0.0015 0
          -0.0015 -0.002 -0.0005 -0.0015 -0.002 0
          -0.002 -0.0005 -0.0005 -0.002 0 -0.0005
          -0.002 -0.0005 0 -0.002 0 0
          -0.002 -0.001 -0.0005 -0.002 -0.001 0
          -0.002 -0.0015 -0.0005 -0.002 -0.0015 0
          -0.002 -0.002 -0.0005 -0.002 -0.002 0
          -0.0005 -0.0005 -0.001 0 -0.0005 -0.001
          0 0 -0.001 -0.0005 0 -0.001
          -0.0005 -0.001 -0.001 0 -0.001 -0.001
          -0.0005 -0.0015 -0.001 0 -0.0015 -0.001
          -0.0005 -0.002 -0.001 0 -0.002 -0.001
          -0.001 -0.0005 -0.001 -0.001 0 -0.001
          -0.001 -0.001 -0.001 -0.001 -0.0015 -0.001
          -0.001 -0.002 -0.001 -0.0015 -0.0005 -0.001
          -0.0015 0 -0.001 -0.0015 -0.001 -0.001
          -0.0015 -0.0015 -0.001 -0.0015 -0.002 -0.001
          -0.002 -0.0005 -0.001 -0.002 0 -0.001
          -0.002 -0.001 -0.001 -0.002 -0.0015 -0.001
          -0.002 -0.002 -0.001 -0.0005 -0.0005 -0.0015
          0 -0.0005 -0.0015 0 0 -0.0015
          -0.0005 0 -0.0015 -0.0005 -0.001 -0.0015
          0 -0.001 -0.0015 -0.0005 -0.0015 -0.0015
          0 -0.0015 -0.0015 -0.0005 -0.002 -0.0015
          0 -0.002 -0.0015 -0.001 -0.0005 -0.0015
          -0.001 0 -0.0015 -0.001 -0.001 -0.0015
          -0.001 -0.0015 -0.0015 -0.001 -0.002 -0.0015
          -0.0015 -0.0005 -0.0015 -0.0015 0 -0.0015
          -0.0015 -0.001 -0.0015 -0.0015 -0.0015 -0.0015
          -0.0015 -0.002 -0.0015 -0.002 -0.0005 -0.0015
          -0.002 0 -0.0015 -0.002 -0.001 -0.0015
          -0.002 -0.0015 -0.0015 -0.002 -0.002 -0.0015
          -0.0005 -0.0005 -0.002 0 -0.0005 -0.002
          0 0 -0.002 -0.0005 0 -0.002
          -0.0005 -0.001 -0.002 0 -0.001 -0.002
          -0.0005 -0.0015 -0.002 0 -0.0015 -0.002
          -0.0005 -0.002 -0.002 0 -0.002 -0.002
          -0.001 -0.0005 -0.002 -0.001 0 -0.002
          -0.001 -0.001 -0.002 -0.001 -0.0015 -0.002
          -0.001 -0.002 -0.002 -0.0015 -0.0005 -0.002
          -0.0015 0 -0.002 -0.0015 -0.001 -0.002
          -0.0015 -0.0015 -0.002 -0.0015 -0.002 -0.002
          -0.002 -0.0005 -0.002 -0.002 0 -0.002
          -0.002 -0.001 -0.002 -0.002 -0.0015 -0.002
          -0.002 -0.002 -0.002 0 0 -0.00025
          0 0 -0.00075 0 0 -0.00125
          0 0 -0.00175 0 -0.00025 0
          0 -0.00025 -0.0005 0 -0.00025 -0.001
          0 -0.00025 -0.0015 0 -0.00025 -0.002
          0 -0.0005 -0.00025 0 -0.0005 -0.00075
          0 -0.0005 -0.00125 0 -0.0005 -0.00175
          0 -0.00075 0 0 -0.00075 -0.0005
          0 -0.00075 -0.001 0 -0.00075 -0.0015
          0 -0.00075 -0.002 0 -0.001 -0.00025
          0 -0.001 -0.00075 0 -0.001 -0.00125
          0 -0.001 -0.00175 0 -0.00125 0
          0 -0.00125 -0.0005 0 -0.00125 -0.001
          0 -0.00125 -0.0015 0 -0.00125 -0.002
          0 -0.0015 -0.00025 0 -0.0015 -0.00075
          0 -0.0015 -0.00125 0 -0.0015 -0.00175
          0 -0.00175 0 0 -0.00175 -0.0005
          0 -0.00175 -0.001 0 -0.00175 -0.0015
          0 -0.00175 -0.002 0 -0.002 -0.00025
          0 -0.002 -0.00075 0 -0.002 -0.00125
          0 -0.002 -0.00175 -0.00025 0 0
          -0.00025 0 -0.0005 -0.00025 0 -0.001
          -0.00025 0 -0.0015 -0.00025 0 -0.002
          -0.00025 -0.0005 0 -0.00025 -0.0005 -0.0005
          -0.00025 -0.0005 -0.001 -0.00025 -0.0005 -0.0015
          -0.00025 -0.0005 -0.002 -0.00025 -0.001 0
          -0.00025 -0.001 -0.0005 -0.00025 -0.001 -0.001
          -0.00025 -0.001 -0.0015 -0.00025 -0.001 -0.002
          -0.00025 -0.0015 0 -0.00025 -0.0015 -0.0005
          -0.00025 -0.0015 -0.001 -0.00025 -0.0015 -0.0015
          -0.00025 -0.0015 -0.002 -0.00025 -0.002 0
          -0.00025 -0.002 -0.0005 -0.00025 -0.002 -0.001
          -0.00025 -0.002 -0.0015 -0.00025 -0.002 -0.002
          -0.0005 0 -0.00025 -0.0005 0 -0.00075
          -0.0005 0 -0.00125 -0.0005 0 -0.00175
          -0.0005 -0.00025 0 -0.0005 -0.00025 -0.0005
          -0.0005 -0.00025 -0.001 -0.0005 -0.00025 -0.0015
          -0.0005 -0.00025 -0.002 -0.0005 -0.0005 -0.00025
          -0.0005 -0.0005 -0.00075 -0.0005 -0.0005 -0.00125
          -0.0005 -0.0005 -0.00175 -0.0005 -0.00075 0
          -0.0005 -0.00075 -0.0005 -0.0005 -0.00075 -0.001
          -0.0005 -0.00075 -0.0015 -0.0005 -0.00075 -0.002
          -0.0005 -0.001 -0.00025 -0.0005 -0.001 -0.00075
          -0.0005 -0.001 -0.00125 -0.0005 -0.001 -0.00175
          -0.0005 -0.00125 0 -0.0005 -0.00125 -0.0005
          -0.0005 -0.00125 -0.001 -0.0005 -0.00125 -0.0015
          -0.0005 -0.00125 -0.002 -0.0005 -0.0015 -0.00025
          -0.0005 -0.0015 -0.00075 -0.0005 -0.0015 -0.00125
          -0.0005 -0.0015 -0.00175 -0.0005 -0.00175 0
          -0.0005 -0.00175 -0.0005 -0.0005 -0.00175 -0.001
          -0.0005 -0.00175 -0.0015 -0.0005 -0.00175 -0.002
          -0.0005 -0.002 -0.00025 -0.0005 -0.002 -0.00075
          -0.0005 -0.002 -0.00125 -0.0005 -0.002 -0.00175
          -0.00075 0 0 -0.00075 0 -0.0005
          -0.00075 0 -0.001 -0.00075 0 -0.0015
          -0.00075 0 -0.002 -0.00075 -0.0005 0
          -0.00075 -0.0005 -0.0005 -0.00075 -0.0005 -0.001
          -0.00075 -0.0005 -0.0015 -0.00075 -0.0005 -0.002
          -0.00075 -0.001 0 -0.00075 -0.001 -0.0005
          -0.00075 -0.001 -0.001 -0.00075 -0.001 -0.0015
          -0.00075 -0.001 -0.002 -0.00075 -0.0015 0
          -0.00075 -0.0015 -0.0005 -0.00075 -0.0015 -0.001
          -0.00075 -0.0015 -0.0015 -0.00075 -0.0015 -0.002
          -0.00075 -0.002 0 -0.00075 -0.002 -0.0005
          -0.00075 -0.002 -0.001 -0.00075 -0.002 -0.0015
          -0.00075 -0.002 -0.002 -0.001 0 -0.00025
          -0.001 0 -0.00075 -0.001 0 -0.00125
          -0.001 0 -0.00175 -0.001 -0.00025 0
          -0.001 -0.00025 -0.0005 -0.001 -0.00025 -0.001
          -0.001 -0.00025 -0.0015 -0.001 -0.00025 -0.002
          -0.001 -0.0005 -0.00025 -0.001 -0.0005 -0.00075
          -0.001 -0.0005 -0.00125 -0.001 -0.0005 -0.00175
          -0.001 -0.00075 0 -0.001 -0.00075 -0.0005
          -0.001 -0.00075 -0.001 -0.001 -0.00075 -0.0015
          -0.001 -0.00075 -0.002 -0.001 -0.001 -0.00025
          -0.001 -0.001 -0.00075 -0.001 -0.001 -0.00125
          -0.001 -0.001 -0.00175 -0.001 -0.00125 0
          -0.001 -0.00125 -0.0005 -0.001 -0.00125 -0.001
          -0.001 -0.00125 -0.0015 -0.001 -0.00125 -0.002
          -0.001 -0.0015 -0.00025 -0.001 -0.0015 -0.00075
          -0.001 -0.0015 -0.00125 -0.001 -0.0015 -0.00175
          -0.001 -0.00175 0 -0.001 -0.00175 -0.0005
          -0.001 -0.00175 -0.001 -0.001 -0.00175 -0.0015
          -0.001 -0.00175 -0.002 -0.001 -0.002 -0.00025
          -0.001 -0.002 -0.00075 -0.001 -0.002 -0.00125
          -0.001 -0.002 -0.00175 -0.00125 0 0
          -0.00125 0 -0.0005 -0.00125 0 -0.001
          -0.00125 0 -0.0015 -0.00125 0 -0.002
          -0.00125 -0.0005 0 -0.00125 -0.0005 -0.0005
          -0.00125 -0.0005 -0.001 -0.00125 -0.0005 -0.0015
          -0.00125 -0.0005 -0.002 -0.00125 -0.001 0
          -0.00125 -0.001 -0.0005 -0.00125 -0.001 -0.001
          -0.00125 -0.001 -0.0015 -0.00125 -0.001 -0.002
          -0.00125 -0.0015 0 -0.00125 -0.0015 -0.0005
          -0.00125 -0.0015 -0.001 -0.00125 -0.0015 -0.0015
          -0.00125 -0.0015 -0.002 -0.00125 -0.002 0
          -0.00125 -0.002 -0.0005 -0.00125 -0.002 -0.001
          -0.00125 -0.002 -0.0015 -0.00125 -0.002 -0.002
          -0.0015 0 -0.00025 -0.0015 0 -0.00075
          -0.0015 0 -0.00125 -0.0015 0 -0.00175
          -0.0015 -0.00025 0 -0.0015 -0.00025 -0.0005
          -0.0015 -0.00025 -0.001 -0.0015 -0.00025 -0.0015
          -0.0015 -0.00025 -0.002 -0.0015 -0.0005 -0.00025
          -0.0015 -0.0005 -0.00075 -0.0015 -0.0005 -0.00125
          -0.0015 -0.0005 -0.00175 -0.0015 -0.00075 0
          -0.0015 -0.00075 -0.0005 -0.0015 -0.00075 -0.001
          -0.0015 -0.00075 -0.0015 -0.0015 -0.00075 -0.002
          -0.0015 -0.001 -0.00025 -0.0015 -0.001 -0.00075
          -0.0015 -0.001 -0.00125 -0.0015 -0.001 -0.00175
          -0.0015 -0.00125 0 -0.0015 -0.00125 -0.0005
          -0.0015 -0.00125 -0.001 -0.0015 -0.00125 -0.0015
          -0.0015 -0.00125 -0.002 -0.0015 -0.0015 -0.00025
          -0.0015 -0.0015 -0.00075 -0.0015 -0.0015 -0.00125
          -0.0015 -0.0015 -0.00175 -0.0015 -0.00175 0
          -0.0015 -0.00175 -0.0005 -0.0015 -0.00175 -0.001
          -0.0015 -0.00175 -0.0015 -0.0015 -0.00175 -0.002
          -0.0015 -0.002 -0.00025 -0.0015 -0.002 -0.00075
          -0.0015 -0.002 -0.00125 -0.0015 -0.002 -0.00175
          -0.00175 0 0 -0.00175 0 -0.0005
          -0.00175 0 -0.001 -0.00175 0 -0.0015
          -0.00175 0 -0.002 -0.00175 -0.0005 0
          -0.00175 -0.0005 -0.0005 -0.00175 -0.0005 -0.001
          -0.00175 -0.0005 -0.0015 -0.00175 -0.0005 -0.002
          -0.00175 -0.001 0 -0.00175 -0.001 -0.0005
          -0.00175 -0.001 -0.001 -0.00175 -0.001 -0.0015
          -0.00175 -0.001 -0.002 -0.00175 -0.0015 0
          -0.00175 -0.0015 -0.0005 -0.00175 -0.0015 -0.001
          -0.00175 -0.0015 -0.0015 -0.00175 -0.0015 -0.002
          -0.00175 -0.002 0 -0.00175 -0.002 -0.0005
          -0.00175 -0.002 -0.001 -0.00175 -0.002 -0.0015
          -0.00175 -0.002 -0.002 -0.002 0 -0.00025
          -0.002 0 -0.00075 -0.002 0 -0.00125
          -0.002 0 -0.00175 -0.002 -0.00025 0
          -0.002 -0.00025 -0.0005 -0.002 -0.00025 -0.001
          -0.002 -0.00025 -0.0015 -0.002 -0.00025 -0.002
          -0.002 -0.0005 -0.00025 -0.002 -0.0005 -0.00075
          -0.002 -0.0005 -0.00125 -0.002 -0.0005 -0.00175
          -0.002 -0.00075 0 -0.002 -0.00075 -0.0005
          -0.002 -0.00075 -0.001 -0.002 -0.00075 -0.0015
          -0.002 -0.00075 -0.002 -0.002 -0.001 -0.00025
          -0.002 -0.001 -0.00075 -0.002 -0.001 -0.00125
          -0.002 -0.001 -0.00175 -0.002 -0.00125 0
          -0.002 -0.00125 -0.0005 -0.002 -0.00125 -0.001
          -0.002 -0.00125 -0.0015 -0.002 -0.00125 -0.002
          -0.002 -0.0015 -0.00025 -0.002 -0.0015 -0.00075
          -0.002 -0.0015 -0.00125 -0.002 -0.0015 -0.00175
          -0.002 -0.00175 0 -0.002 -0.00175 -0.0005
          -0.002 -0.00175 -0.001 -0.002 -0.00175 -0.0015
          -0.002 -0.00175 -0.002 -0.002 -0.002 -0.00025
          -0.002 -0.002 -0.00075 -0.002 -0.002 -0.00125
          -0.002 -0.002 -0.00175
        </DataArray>
        <DataArray type="Float64" Name="epsilon" NumberOfComponents="6" format="ascii" RangeMin="0.003464101615" RangeMax="0.0034641016152">
          -0.0019999999999 -0.0019999999999 -0.0020000000001 -3.5858269431e-14 8.748295427e-15 8.7478022722e-15
          -0.0019999999999 -0.0019999999999 -0.0020000000001 -9.9756716571e-15 6.4568673248e-15 3.8132053597e-16
          -0.0019999999999 -0.0019999999999 -0.0020000000001 -5.4280524161e-19 3.9360297943e-15 3.9376047832e-15
          -0.0019999999999 -0.0019999999999 -0.0020000000001 -9.9628713976e-15 3.8011760254e-16 6.4581618671e-15
          -0.0019999999999 -0.0019999999999 -0.0020000000001 -4.2162781153e-14 -3.2720541457e-15 -3.2576168562e-15
          -0.0019999999999 -0.0019999999999 -0.0020000000001 -1.476416935e-14 -1.2071037159e-14 2.3641009709e-19
          -0.0019999999999 -0.0019999999999 -0.0020000000001 -2.625877071e-19 5.0264481932e-19 2.494589205e-20
          -0.0019999999999 -0.0019999999999 -0.0020000000001 -1.4748265663e-14 -3.2828472841e-19 -1.205693946e-14
          -0.002 -0.0019999999999 -0.0020000000001 -5.2531567806e-14 1.0844930247e-14 1.4418840178e-14
          -0.002 -0.0019999999999 -0.0020000000001 -2.5596350638e-14 4.95409866e-15 -1.0900169075e-14
          -0.002 -0.0019999999999 -0.002 -6.0143945443e-14 -2.7778669022e-15 8.82697524e-15
          -0.002 -0.0019999999999 -0.002 -1.7872604186e-14 -1.7649055655e-14 1.1001883831e-19
          -0.002 -0.0019999999999 -0.002 -4.6343039293e-14 1.0691402764e-14 1.6182066244e-14
          -0.002 -0.0019999999999 -0.002 -3.3557968616e-14 1.7394566574e-15 -8.9690516398e-15
          -0.002 -0.0019999999999 -0.002 -5.4817608094e-14 -4.4685134798e-15 1.4056876935e-14
          -0.002 -0.0019999999999 -0.002 -2.9884611916e-14 -2.9482022891e-14 -5.3181470402e-21
          -0.0019999999999 -0.002 -0.0019999999999 6.614815534e-15 1.303880269e-14 4.5938601289e-15
          -0.0019999999999 -0.002 -0.002 -4.9468711061e-14 1.4732632219e-14 -1.0133275507e-14
          -0.0019999999999 -0.002 -0.0019999999999 5.4495976638e-15 -5.9245438622e-15 -1.5416570449e-14
          -0.0019999999999 -0.002 -0.0019999999999 -3.0225113896e-14 -3.7719623075e-14 -2.6828764163e-19
          -0.0019999999999 -0.002 -0.0020000000001 -5.2529304081e-14 1.4420775157e-14 1.0845208092e-14
          -0.0019999999999 -0.002 -0.0020000000001 -2.556913933e-14 -1.0901419865e-14 4.9524327725e-15
          -0.0019999999999 -0.002 -0.002 -6.0145618471e-14 8.8108193996e-15 -2.747732213e-15
          -0.0019999999999 -0.002 -0.002 -1.7840570099e-14 2.1408682892e-19 -1.7623192539e-14
          -0.002 -0.002 -0.002 -6.4771413438e-14 2.2998826262e-14 2.2993076088e-14
          -0.002 -0.002 -0.002 -7.1654027647e-14 2.1247392278e-14 2.1275673001e-14
          -0.002 -0.002 -0.002 -4.0275544536e-14 2.497389899e-14 2.6844865758e-14
          -0.002 -0.002 -0.0019999999999 -4.7790887785e-14 3.136694163e-14 3.1945662472e-14
          -0.002 -0.002 -0.0019999999999 4.5057552438e-15 1.3818979712e-14 1.9862450003e-14
          -0.0020000000001 -0.002 -0.0019999999999 -6.9417470941e-15 3.2624879764e-14 -6.3294476925e-16
          -0.0019999999999 -0.002 -0.002 -4.6342886771e-14 1.618336359e-14 1.0695381446e-14
          -0.0019999999999 -0.002 -0.002 -3.3522117686e-14 -8.9683314973e-15 1.738020917e-15
          -0.0019999999999 -0.002 -0.002 -5.482119582e-14 1.4042708434e-14 -4.4328550711e-15
          -0.0019999999999 -0.002 -0.002 -2.9844325105e-14 -3.2799988897e-19 -2.9449845124e-14
          -0.002 -0.002 -0.002 -4.0276357477e-14 2.6846102735e-14 2.4969673018e-14
          -0.002 -0.002 -0.0019999999999 -4.7790215127e-14 3.1914179889e-14 3.1404357649e-14
          -0.002 -0.002 -0.0019999999999 -4.7730098027e-15 3.2402168755e-14 3.2398146286e-14
          -0.002 -0.002 -0.0019999999999 9.543114879e-16 3.5222236304e-14 3.5263549418e-14
          -0.0020000000001 -0.002 -0.0019999999998 -6.1151587529e-15 1.2079022189e-14 3.1249901002e-14
          -0.0020000000001 -0.002 -0.0019999999999 -2.2523816596e-14 4.0182774685e-14 3.046335178e-14
          -0.002 -0.0019999999999 -0.0019999999999 6.6331222562e-15 4.5956364758e-15 1.3038435803e-14
          -0.002 -0.0019999999999 -0.002 -4.943382435e-14 -1.0134306086e-14 1.4731104551e-14
          -0.002 -0.0019999999999 -0.0019999999999 5.4711679494e-15 -1.5431621434e-14 -5.8969393818e-15
          -0.002 -0.0019999999999 -0.0019999999999 -3.0183723798e-14 -8.0482659346e-19 -3.770050488e-14
          -0.002 -0.002 -0.0019999999999 4.5440995094e-15 1.9861884314e-14 1.3818042173e-14
          -0.002 -0.0020000000001 -0.0019999999999 -6.9064398579e-15 -6.619756003e-16 3.2652814258e-14
          -0.002 -0.0020000000001 -0.0019999999998 -6.0772237706e-15 3.1251351777e-14 1.2077093731e-14
          -0.002 -0.0020000000001 -0.0019999999999 -2.2476871823e-14 3.0419691394e-14 4.0220722955e-14
          -0.002 -0.002 -0.0019999999998 -6.6346553856e-15 -1.8804274371e-15 -1.8843506291e-15
          -0.002 -0.002 -0.0019999999999 -5.8994622324e-14 3.0490465622e-14 3.0533468648e-14
          -0.002 -0.002 -0.0020000000001 -2.6510731108e-14 4.5184250814e-15 4.5187035135e-15
          -0.002 -0.002 -0.0020000000001 -5.067393998e-15 2.2332444689e-15 6.5591252961e-15
          -0.002 -0.002 -0.0020000000001 3.4250138289e-20 2.065654933e-14 2.0654245134e-14
          -0.002 -0.002 -0.0020000000001 -5.0517863564e-15 6.5594346291e-15 2.2325925432e-15
          -0.002 -0.0019999999999 -0.0020000000001 -3.8056904041e-14 -9.7649722467e-16 9.9748786086e-15
          -0.002 -0.0019999999999 -0.0020000000001 -1.3466522838e-14 -8.4250390878e-15 1.1902225558e-15
          -0.002 -0.002 -0.0020000000001 -3.1574806172e-14 -9.3554955804e-15 1.247578982e-14
          -0.002 -0.0019999999999 -0.0020000000001 -3.1542490823e-14 -1.79149568e-14 1.2248272552e-15
          -0.002 -0.002 -0.002 4.0775019663e-15 1.035627549e-14 3.7528964443e-15
          -0.0019999999999 -0.002 -0.002 -2.1459156296e-14 6.1643886055e-15 -7.8534317608e-15
          -0.0019999999999 -0.002 -0.0020000000001 -3.8055793068e-14 9.9751605858e-15 -9.7895816462e-16
          -0.0019999999999 -0.002 -0.0020000000001 -1.3437142662e-14 1.1887700229e-15 -8.4270211841e-15
          -0.002 -0.002 -0.0020000000001 -4.9654209503e-14 1.0654353199e-14 1.0652658364e-14
          -0.002 -0.002 -0.002 -3.3465794144e-14 5.5715585916e-15 1.7028639695e-14
          -0.002 -0.002 -0.0019999999999 7.1518188488e-15 1.0961929349e-14 8.6951925196e-15
          -0.002 -0.002 -0.0020000000001 -3.1574790706e-14 1.2479790589e-14 -9.3539631018e-15
          -0.0019999999999 -0.002 -0.0020000000001 -3.1501511146e-14 1.2203806814e-15 -1.7910941586e-14
          -0.002 -0.002 -0.002 -3.346404678e-14 1.7030206615e-14 5.5692017712e-15
          -0.002 -0.002 -0.002 -6.4995576071e-15 1.4982234981e-14 1.4983358152e-14
          -0.0020000000001 -0.002 -0.0019999999998 9.2085248162e-15 2.310209639e-14 2.0009908115e-14
          -0.002 -0.002 -0.002 4.0945335259e-15 3.7584682171e-15 1.0366262335e-14
          -0.002 -0.0019999999999 -0.002 -2.1426635964e-14 -7.8488917313e-15 6.1745139148e-15
          -0.002 -0.002 -0.0019999999999 7.1885407653e-15 8.7016210434e-15 1.0963927822e-14
          -0.002 -0.0020000000001 -0.0019999999998 9.2518911791e-15 2.0009563569e-14 2.3099789095e-14
          -0.0020000000001 -0.0020000000001 -0.0019999999997 -1.5323030262e-14 3.9565023607e-14 3.9570095216e-14
          -0.002 -0.002 -0.0020000000001 -2.1568461116e-14 -2.4966552149e-15 -2.4985224676e-15
          -0.002 -0.002 -0.0020000000001 -1.398813935e-15 -1.7913022988e-15 3.0608436206e-14
          -0.002 -0.002 -0.0020000000001 1.8593352932e-19 3.2303815991e-14 3.2304017253e-14
          -0.002 -0.002 -0.0020000000001 -1.3839113861e-15 3.0604232433e-14 -1.7942075081e-15
          -0.0020000000001 -0.002 -0.002 -3.4553350266e-14 -1.1437377887e-14 -6.3762848017e-16
          -0.0020000000001 -0.002 -0.002 7.2240405052e-16 -1.3250806834e-14 1.7722890051e-14
          -0.0020000000001 -0.002 -0.002 -2.8865052863e-14 -1.4187156356e-14 2.4200480738e-15
          -0.0020000000001 -0.002 -0.002 4.0403328645e-16 -1.7627713634e-14 3.1788236186e-14
          -0.0020000000001 -0.002 -0.002 -2.0755734043e-15 1.2926568855e-14 8.7555806902e-15
          -0.002 -0.002 -0.0020000000001 2.7684882774e-15 -1.4131541897e-14 -2.9894133104e-15
          -0.002 -0.0020000000001 -0.002 -3.4555595347e-14 -6.3995776979e-16 -1.1438197903e-14
          -0.002 -0.0020000000001 -0.002 7.4934490762e-16 1.7725683283e-14 -1.3252933044e-14
          -0.002 -0.002 -0.002 -4.8887654452e-14 -3.5113633646e-15 -3.5181746067e-15
          -0.0020000000001 -0.002 -0.002 -3.6152170078e-14 -1.2316971035e-14 -2.5797846363e-15