<?xml version="1.0"?>
<VTKFile type="UnstructuredGrid" version="0.1" byte_order="LittleEndian" header_type="UInt32">
  <UnstructuredGrid>
    <FieldData>
      <DataArray type="Int8" Name="IntegrationPointMetaData" NumberOfTuples="97" format="ascii" RangeMin="34" RangeMax="125">
        123 34 105 110 116 101
        103 114 97 116 105 111
        110 95 112 111 105 110
        116 95 97 114 114 97
        121 115 34 58 91 123
        34 105 110 116 101 103
        114 97 116 105 111 110
        95 111 114 100 101 114
        34 58 50 44 34 110
        97 109 101 34 58 34
        115 105 103 109 97 95
        105 112 34 44 34 110
        117 109 98 101 114 95
        111 102 95 99 111 109
        112 111 110 101 110 116
        115 34 58 54 125 93
        125
      </DataArray>
      <DataArray type="Int8" Name="OGS_VERSION" NumberOfTuples="40" format="ascii" RangeMin="45" RangeMax="121">
        54 46 50 46 48 45
        49 53 45 103 53 51
        56 49 101 101 99 99
        100 46 100 105 114 116
        121 46 50 48 49 57
        48 52 48 49 49 53
        48 52 49 50
      </DataArray>
      <DataArray type="Float64" Name="sigma_ip" NumberOfComponents="6" NumberOfTuples="6912" format="ascii" RangeMin="141421356.23" RangeMax="141421356.25">
        -0.0015117898583 -141421356.24 -0.0055350130424 0.00011708637408 -0.00019136025715 -0.00048939199286
        -0.0010610185564 -141421356.24 -0.0047230040655 0.00013090645874 -0.0015481198529 3.6492383317e-07
        -0.0012251883745 -141421356.24 -0.0039352737367 0.00015843214216 -0.0028362134585 0.00049345496486
        -0.00020670518279 -141421356.24 0.0020776735619 0.0002162066381 0.0014091902447 0.00069205287804
        -0.0012070797384 -141421356.24 0.0020927041769 -3.7126144596e-05 0.00072378400198 0.0012492582222
        -0.0029099546373 -141421356.24 0.0019990121946 -0.00040486306009 0.00010085314113 0.0018032471
        -0.00018034502864 -141421356.24 0.0063722105697 0.00013522012422 0.0011187536928 -0.00073070075247
        -0.0037967562675 -141421356.24 0.0052557364106 -0.00088778097704 0.00058797662638 -0.00062421550518
        -0.008203998208 -141421356.24 0.0039453655481 -0.0021518526025 0.00011064661533 -0.00052750238405
        -0.00048670917749 -141421356.24 0.0020001586527 -0.00010796021166 0.0014115329893 -0.0016506373841
        -0.0015505328774 -141421356.24 0.0019571576267 0.00015399990199 0.00072082474568 -0.0012981577603
        -0.0033085532486 -141421356.24 0.0018076542765 0.00055309777883 9.0297949249e-05 -0.00093580602679
        -0.00095527991652 -141421356.24 -0.0011266320944 -3.7126144596e-06 0.0015147901428 -0.00048006088022
        -0.0013470873237 -141421356.24 -0.0014402084053 -8.5700880036e-06 0.0010923264076 -4.7918485858e-05
        -0.0025213956833 -141421356.24 -0.0019455151632 -3.2056054365e-06 0.00072447960609 0.00038754144436
        -0.00097559019923 -141421356.24 -0.00066290423274 -8.0009294874e-05 0.00016014623642 0.00016257037332
        -0.0018601939082 -141421356.24 -0.0015812888741 -0.00085270740123 -0.00051298094543 0.00015619327822
        -0.0036156028509 -141421356.24 -0.0027767233551 -0.0017430970215 -0.0011371171666 0.00014658655609
        -0.00074032694101 -141421356.24 0.0062745185569 -0.00014631299099 0.001126021986 -0.0001081385848
        -0.0044846534729 -141421356.24 0.0050421105698 0.00086505552422 0.00058650454612 0.00062070375216
        -0.0090034902096 -141421356.24 0.0036197984591 0.0021375500415 0.0001029158317 0.0013659840167
        -0.0012705214322 -141421356.24 -0.00074326712638 -3.6995303558e-05 0.00016081590232 -0.0010275138393
        -0.0022198334336 -141421356.24 -0.0017198147252 0.0007084060912 -0.0005127895393 -0.00020677892798
        -0.0040316283703 -141421356.24 -0.0029712021351 0.0015884429143 -0.0011382015244 0.00062381787109
        0.00037493184209 -141421356.24 0.0027387998998 -0.0001080910527 -0.0018295032165 -0.00039857860147
        0.0010554753244 -141421356.24 0.0016833730042 -0.00013028496381 -0.0031568339284 -4.1613583329e-06
        0.00078611448407 -141421356.24 0.00026878714561 -0.00014446486133 -0.0044434067625 0.00039357802054
        -0.00019994005561 -141421356.24 -0.0017703268677 1.4899523228e-05 0.0002984278365 -0.00020284353876
        -0.0003584548831 -141421356.24 -0.0021747751161 5.3644825672e-05 -0.00091913516635 1.5302268299e-06
        -0.00082550570369 -141421356.24 -0.0026611341164 0.00010033872119 -0.0022553824267 0.0002081676446
        0.00096287950873 -141421356.24 0.0025594728068 0.00014788308345 0.00039362484988 -0.00021324399578
        0.00085573270917 -141421356.24 0.0029093353078 0.000204537253 0.00021116299718 0.00018143805991
        0.00042971596122 -141421356.24 0.0031680101529 0.00025511549184 -4.4368272726e-05 0.00062503696713
        0.0011221840978 -141421356.24 0.0033736983314 0.00018608457783 0.0004502021631 -0.0005392120181
        0.001066211611 -141421356.24 0.004495209083 0.00028681173335 0.00089700015926 -0.00036187705138
        0.00068069249392 -141421356.24 0.0055159097537 0.00036732394847 0.0013158315387 -8.8971075458e-05
        0.00093751400709 -141421356.24 0.0025965180248 -0.00013622187592 0.00039530374228 -0.00026529911562
        0.00072282552719 -141421356.24 0.0028901062906 -0.00015887373066 0.00020692075762 -0.00027773949175
        0.0001918785274 -141421356.24 0.0030930330977 -0.00016139242065 -5.3809239447e-05 -0.00033456500684
        0.00050514563918 -141421356.24 -1.8342398107e-05 -2.5677553751e-06 0.00029071626504 -0.0002739148191
        0.00028428062797 -141421356.24 0.00046714674681 -5.6915851627e-06 0.00038560642807 -9.5923091697e-05
        -0.00026325136423 -141421356.24 0.00085260998458 -2.4042040774e-06 0.00045687991147 8.434052934e-05
        0.00042767450213 -141421356.24 -0.0007137292996 3.6455584275e-05 -2.8962251573e-05 -0.00055424302124
        0.00020097568631 -141421356.24 -1.843739301e-05 7.9355089683e-05 -5.676839991e-05 -0.0005934608336
        -0.00036298111081 -141421356.24 0.00056723598391 0.00011433871228 -6.3903069727e-05 -0.00058380881543
        0.0010593570769 -141421356.24 0.0034157354385 -0.00019048819652 0.00046277145905 0.00018524867737
        0.00078384205699 -141421356.24 0.0044236360118 -0.00029923345442 0.00089467453954 0.00036615302339
        0.00018429756165 -141421356.24 0.0053320210427 -0.00037492499503 0.0013000836453 0.00045606394383
        0.00039859861135 -141421356.24 -0.00067519396544 -5.5542020726e-05 -1.8235266943e-05 0.00012614379384
        5.954131484e-05 -141421356.24 -3.7643127143e-05 -0.00014336906763 -5.3721745891e-05 0.00049761300106
        -0.00061363726854 -141421356.24 0.00049136113375 -0.00021235500504 -6.9979830974e-05 0.00082471163561
        0.0014521032572 -141421356.24 0.0025893999264 -1.5799055366e-05 -0.00088988887217 -0.00016078728085
        0.0010495893657 -141421356.24 0.0028742505237 -5.6359777215e-05 -0.0017997160531 -6.4308881385e-06
        0.00030264630914 -141421356.24 0.003041296266 -9.1392465199e-05 -0.0026431472847 0.00015018244859
        0.00014373660088 -141421356.24 0.0052364589646 0.0010321640627 0.0010309755048 -0.00072399048549
        -0.00067288428545 -141421356.24 0.0042759981006 -0.00049470996552 0.0011036395575 -0.0012199107306
        -0.001541081816 -141421356.24 0.0031388122588 -0.0022405055834 0.0011846412766 -0.0016926340352
        0.00060287490487 -141421356.24 0.0019794879481 0.0010162750541 0.00084400749439 0.00016063190711
        -4.0851533413e-05 -141421356.24 0.0014125388116 0.00033240165761 0.0013333447998 0.00017272882553
        -0.00042259693146 -141421356.24 0.00080978590995 -0.00035906051915 0.0018117504898 0.00019021948685
        0.0011711120605 -141421356.24 -0.00012667756528 0.00066624665542 -0.0016483360578 -0.0022851771927
        -0.00022130087018 -141421356.24 -0.00068683829159 0.00024547414284 -0.00077822896148 -0.0018017452391
        -0.0010381378233 -141421356.24 -0.001142016612 2.8296418907e-05 6.3972908176e-05 -0.001330849237
        -0.0012678466737 -141421356.24 -0.00074642710388 0.00078983828237 7.6373153423e-05 0.00032214801343
        -0.0018055178225 -141421356.24 -0.0016960455105 -1.5668214327e-05 -0.00028626920303 -0.00013023487623
        -0.0025414042175 -141421356.24 -0.0027961824089 -0.0010784736127 -0.00065908802789 -0.00054163896603
        -0.00032237172127 -141421356.24 -0.00091014243662 0.0009864024096 5.6585937994e-05 0.00083154054116
        -0.00092427432537 -141421356.24 -0.0014209700748 0.00082541068963 -6.1751859064e-05 0.00098001982021
        -0.0014109797776 -141421356.24 -0.0019416278228 0.00061862460629 -0.0002078231008 0.0011516755959
        0.00085467100143 -141421356.24 0.00056637171656 0.00084879034765 -0.00070426076856 -0.00065203200325
        -0.00073317810893 -141421356.24 0.00010768976063 0.00075230325953 -0.00061425701999 6.0634854809e-05
        -0.0018924623728 -141421356.24 -0.00022017583251 0.00082129737449 -0.00057203267478 0.00077863144078
        4.8015266657e-05 -141421356.24 0.0039117457345 0.00057617486695 0.00023549940269 -0.0023574948489
        0.00069307535887 -141421356.24 0.0032373648137 9.6168163094e-05 -7.1781131302e-05 -0.0032543570118
        0.00099258869886 -141421356.24 0.0024379435927 -0.00067939209098 -0.00040745116329 -0.0040924061279
        -0.00014665350318 -141421356.24 0.0003346092999 0.00098506946653 6.0645587863e-06 -0.00062511759281
        0.00019658356905 -141421356.24 0.00014407001436 0.0009514433197 -0.00023189682963 -0.0008281910617
        0.00050797685981 -141421356.24 -3.0664727092e-05 0.00083319573141 -0.00051646471584 -0.0009903033636
        1.2435019016e-05 -141421356.24 -0.0011127814651 0.0010599759609 0.00059818031074 0.00045180432694
        -0.00086752325296 -141421356.24 -0.0012059677392 0.00089233588069 0.00039320031926 0.00090571539904
        -0.0014659054577 -141421356.24 -0.0011426275596 0.00085175062614 0.0001252852773 0.0013828006678
[...]
      <PointData>
        <DataArray type="Float64" Name="MaterialForces" NumberOfComponents="3" format="ascii" RangeMin="2.6852227724e-07" RangeMax="416666.66668">
          1.0042236439e-06 -2.24771793e-06 5.607798812e-07 41666.666669 -41666.666667 7.9724850366e-07
          3.1094591605e-07 -41666.666664 2.4608016247e-06 -41666.666667 -41666.666667 6.1863829615e-07
          7.3506805833e-07 9.6581425169e-07 208333.33334 20833.333334 -20833.333332 104166.66667
          2.2190770278e-07 -20833.333331 52083.333336 -20833.333333 -20833.333332 104166.66667
          2.290890748e-08 -6.9126544986e-06 -1.2252712622e-08 41666.666668 -41666.666666 5.8556906879e-08
          1.9336031673e-08 -41666.666666 2.9627699405e-08 -41666.666668 -41666.666666 -8.731149137e-09
          1.2140492232e-06 -3.6469537008e-06 -1.9676735974e-06 41666.666671 -41666.66667 -2.588632924e-06
          5.1036496699e-07 -8.2385668065e-07 208333.33333 20833.333336 -20833.333334 104166.66667
          1.9275716875e-07 -2.1028463379e-06 1.0506482795e-08 41666.66667 -41666.666667 6.6989741754e-08
          3.0234496321e-07 -8.5759893409e-07 -2.197761205e-06 41666.666669 -41666.666667 -2.2951790015e-06
          4.2696830203e-07 -3.9184378693e-06 208333.33333 20833.333335 -20833.333335 104166.66667
          -9.9584357079e-07 5.3824769566e-06 -2.5887857191e-08 41666.666667 -41666.666666 5.5013515521e-08
          6.3749761665e-07 -4.3132058636e-06 7.7885488281e-07 41666.666668 -41666.66667 4.931280273e-07
          8.1665629847e-07 -1.0409785318e-06 208333.33333 20833.333334 -20833.333334 104166.66667
          -1.2263650305e-06 -3.3801916288e-06 -1.3039971236e-07 41666.666667 -41666.666668 2.1253072191e-08
          -3.9733575288e-06 -5.2995674196e-06 -9.5626455732e-07 41666.666666 -41666.666668 -8.2991755335e-07
          -1.2390378712e-06 -9.1876790975e-07 208333.33333 20833.333333 -20833.333332 104166.66667
          -5.3215004835e-06 -2.9694456316e-06 -2.4618930183e-07 41666.666666 -41666.666672 -1.6749254428e-08
          -2.01593221e-07 -1.7906277208e-06 -1.0626245057e-06 41666.666669 -41666.666667 -3.7405552575e-06
          -1.681655354e-07 -2.7246860554e-06 208333.33333 20833.333334 -20833.333335 104166.66667
          -8.8092917133e-07 6.0124148149e-06 -2.7171336114e-07 41666.666669 -41666.666668 -3.4495315049e-08
          2.7813902175e-06 -1.2619930203e-06 -1.3502649381e-06 41666.666668 -41666.666669 -2.3496322683e-06
          1.9966952466e-06 -7.6038850239e-07 208333.33333 20833.333334 -20833.333335 104166.66666
          2.3795697379e-06 -7.3998671724e-07 -1.8191349227e-07 41666.666667 -41666.666672 -2.3188476916e-08
          41666.666668 41666.666667 -2.4226173991e-06 41666.666664 -6.0661875523e-07 -2.1364467102e-06
          20833.333334 20833.333334 104166.66666 20833.333333 -3.6288793126e-07 52083.333332
          41666.666667 41666.666671 -4.7744833864e-08 41666.666663 -3.4334618704e-07 -3.6598066799e-09
          2.558087103e-07 -2.7818387025e-06 -2.5838889997e-06 -41666.66667 -41666.666669 -3.063963959e-06
          5.9405785184e-07 -3.3256583265e-07 208333.33333 -20833.333335 -20833.333334 104166.66667
          -2.5486524355e-07 -1.8302307581e-06 -1.1011434253e-07 -41666.66667 -41666.666667 -7.6906871982e-08
          5.5267951979e-07 -5.3948497225e-06 -3.3073083614e-06 4.4225826418e-07 -7.6037395047e-07 208333.33334
          -8.0371448817e-08 -8.5954889073e-07 -3.5688572098e-08 2.8840197539e-06 -1.4595534594e-06 -9.8077725852e-07
          2.4484982751e-06 -1.6815320123e-06 208333.33334 1.7911783605e-06 1.4655743144e-06 -5.5275449995e-08
          3.234190882e-06 -3.3632786653e-06 1.2717864593e-06 2.125538824e-06 6.1031460064e-07 208333.33333
          1.4149524528e-06 -4.4685293688e-06 -2.4409382604e-07 -1.2307800767e-06 1.5668665583e-06 2.1008454496e-06
          -4.854506396e-07 2.8245340218e-06 208333.33333 -1.3994411024e-06 1.7789461708e-06 -4.9899244914e-07
          -8.0512934835e-07 4.6551940613e-07 3.1981617212e-06 9.6720192647e-09 2.7900750865e-07 208333.33333
          -1.4465484907e-06 1.9050639821e-07 -5.5170676205e-07 -7.7230706377e-08 1.6605918063e-06 -1.2584205251e-06
          -7.3425159027e-08 2.6578927645e-06 208333.33333 -9.184379044e-07 -6.2628023443e-06 -3.041641321e-07
          41666.666669 41666.666666 -3.8836078602e-06 20833.333334 20833.333335 104166.66667
          41666.666669 41666.666668 -4.6551576816e-08 6.2921460282e-07 1.0417243175e-06 -3.2086318242e-06
          -41666.666668 -41666.666666 -2.9403017834e-06 2.7827433957e-07 -2.7630121622e-06 208333.33333
          -20833.333335 -20833.333335 104166.66667 8.5787766875e-07 5.9138328652e-06 -1.3485987438e-07
          -41666.666667 -41666.666665 -1.1533120414e-07 -2.1491340435e-06 -5.5198688642e-07 -1.4564284356e-06
          -1.824910043e-06 -1.1222255125e-06 208333.33334 -2.0227428488e-06 1.6933445295e-06 5.5159034673e-08
          2.6904715092e-07 1.8122482288e-06 1.5548284864e-06 2.6090782721e-07 -7.7061486081e-07 208333.33333
          -1.5280056368e-07 -3.7909558159e-07 1.3933458831e-07 -5.8901874691e-07 1.2040873116e-06 8.5373903858e-07
          3.8207397007e-07 -1.5376244846e-06 208333.33333 -2.043515486e-06 -1.4568686311e-06 -6.5731001087e-08
          -3.55104206e-06 8.5110514192e-07 -7.4222043622e-08 -2.3791883987e-06 4.8890433391e-07 208333.33333
          -4.27321233e-06 5.2028190112e-07 -4.3924228521e-07 -1.1040316692e-06 5.4792326409e-07 1.9145008991e-06
          -3.8751614126e-07 -1.5508885554e-06 208333.33333 -1.4459854407e-06 -7.5013304013e-07 -5.7748547988e-07
          -3.751156027e-06 7.7384829638e-06 -1.2618475012e-06 -1.0664566186e-06 2.4349028536e-06 208333.33333
          -5.4142058346e-06 3.959350579e-06 -2.9753573472e-07 41666.666666 41666.666669 -9.8207237897e-07
          20833.333333 20833.333333 104166.66667 41666.666666 41666.666673 1.4042598195e-09
          3.5742356767e-08 -1.7523561837e-06 -1.7443380784e-07 -41666.666668 -41666.666668 -9.2652044259e-08
          -3.4480934128e-07 5.7722718338e-07 208333.33333 -20833.333334 -20833.333333 104166.66667
          1.1068535127e-06 -2.7172791306e-06 -6.1343598645e-08 -41666.666667 -41666.666668 -1.0212534107e-07
          -2.6350825952e-06 -2.2217463993e-06 7.0395617513e-07 -1.6438236471e-06 1.301181328e-06 208333.33333
          -1.6301062388e-06 -4.1876191972e-06 2.4757173378e-07 1.1193623472e-06 1.0398762242e-06 6.0370803112e-07
          1.2060087308e-07 -1.6907724785e-06 208333.33333 1.7397137498e-06 -1.4753313735e-06 4.3496402213e-07
          3.0333109975e-07 -1.1616793927e-07 4.3614272727e-07 2.9579790973e-07 -1.9463186618e-07 208333.33333
          -1.6695338199e-07 3.3748074202e-07 2.6080670068e-07 -4.5504313051e-07 -9.2401023721e-08 6.3204788603e-07
          4.8876126703e-07 2.0963016141e-06 208333.33333 -2.0624318033e-06 2.4058826966e-06 -1.5449040802e-07
          3.4326274584e-06 5.9728590713e-06 9.6853182185e-07 2.2871488943e-06 9.7296651802e-07 208333.33333
          1.3350070283e-06 5.7299403124e-06 -3.7740392145e-07 8.5378696767e-07 8.1096331996e-06 5.0308881328e-07
          9.970398922e-07 3.4360236896e-06 208333.33333 -1.3710353185e-06 4.8751244321e-06 -1.7967977328e-07
          41666.666668 41666.666672 4.0546001401e-07 20833.333335 20833.333335 104166.66667
          41666.666667 41666.666669 6.6211214289e-08 4.7505131273e-06 -2.643220796e-06 -1.4651886886e-06
          -41666.666665 -41666.666666 -1.1616575648e-06 1.7205734739e-06 7.9420715338e-07 208333.33333
          -20833.333333 -20833.333331 104166.66667 5.3127151516e-06 -2.2837994038e-06 7.2206603363e-08
          -41666.666666 -41666.666672 -4.4943590183e-08 1.9988046656e-06 2.0430015866e-06 1.7617203412e-06
          1.0091979495e-06 3.0610135582e-06 208333.33333 1.2931343181e-06 1.9350991352e-06 4.0035229176e-07
          4.3076864462e-06 -8.4241401055e-07 -4.2096507968e-07 2.9754454622e-06 -7.0769237936e-07 208333.33333
          4.060550712e-06 1.8965147319e-07 5.8000296121e-07 1.303321321e-06 -2.1426203602e-06 3.0157389119e-07
          2.4795661157e-07 7.0956230047e-07 208333.33333 1.7820206406e-06 1.9613144104e-06 4.2178726289e-07
          5.250567304e-07 -1.5168661776e-06 1.1350784916e-06 4.5365490308e-07 8.266288205e-07 208333.33333
          -1.3607993136e-07 1.0313851817e-06 5.6425051298e-08 3.0841000618e-06 3.4344229789e-06 -1.2969394447e-06
          2.6158732136e-06 2.949978807e-06 208333.33334 1.7258562458e-06 -6.7473956733e-07 -1.6299600247e-07
          3.98773217e-07 4.1118437366e-06 -2.3049506126e-06 5.2760778439e-07 6.10182542e-06 208333.33333
          -1.1488340803e-06 -4.5405213314e-06 -5.1419192459e-08 41666.666669 41666.666669 -2.2569292923e-06
          20833.333335 20833.333337 104166.66667 41666.666667 41666.666666 1.0978692444e-07
          1.2850645661e-06 6.5990752773e-07 -1.0184303392e-06 -41666.666669 -41666.666665 -3.7641948438e-06
          8.1593048013e-07 -1.130727469e-06 208333.33333 -20833.333333 -20833.333334 104166.66667
          1.0137243669e-06 6.7236214818e-06 1.9492290448e-07 -41666.666669 -41666.666667 2.8689100873e-08
          1.9054353294e-06 -2.2837048164e-07 3.1491945265e-06 6.7131005048e-07 -2.4230030249e-07 208333.33333
          1.4877757175e-06 1.570515451e-07 3.9139558794e-07 2.1996977785e-06 -3.4387812775e-06 1.4600227587e-06
          1.1269161935e-06 -4.2292776925e-06 208333.33333 1.3724120966e-06 -1.5527839423e-06 4.2888859753e-07
          -2.2786753475e-06 7.9374876805e-07 1.7316051526e-07 -1.4202555214e-06 -2.4203873181e-06 208333.33333
          -1.503846902e-06 4.5655797294e-06 2.5916961022e-07 -1.8030391094e-06 -5.7978468249e-08 -1.95006578e-06
          -1.5913724276e-06 7.1862450568e-07 208333.33334 -1.9234873912e-06 -1.5232581063e-06 1.9477738533e-08
          7.0779359481e-07 5.8831610659e-06 -3.5000120988e-06 5.6301212843e-07 1.2706113921e-06 208333.33334
          -7.7711626884e-08 6.0258753365e-07 -8.4466591943e-08 1.1296088622e-06 4.9170121201e-06 -1.7977581592e-06
          4.7296136552e-07 1.9674262148e-06 208333.33334 9.0257844613e-08 1.3963435777e-06 1.2456439435e-08
          41666.666671 41666.666671 -2.3909815354e-06 20833.333335 20833.333334 104166.66667
          41666.66667 41666.666667 1.1878000805e-07 -1.4728695788e-06 1.1941010598e-06 -9.2209666036e-07
          -41666.666668 -41666.666667 -2.1506639314e-06 -1.2117251819e-06 8.3497434389e-07 208333.33333
          -20833.333334 -20833.333334 104166.66667 -2.1368847713e-06 1.2547388906e-08 2.6517227525e-07
          -41666.666667 -41666.666672 8.7631633505e-08 1.4127908314e-06 1.0248550097e-07 -1.1927986634e-06
          8.7854947616e-07 1.5776786313e-06 208333.33333 1.0825186824e-06 -6.4710002334e-06 2.3862230591e-07
          5.0694410984e-06 1.9489234546e-06 -1.9271974452e-06 1.893197926e-06 -1.3893477444e-06 208333.33333
          5.466226309e-06 2.7105452318e-06 1.0302755982e-07 4.8496004937e-07 4.1150997276e-07 -7.886919775e-07
          -8.5779623558e-08 -1.5229452401e-06 208333.33333 1.3157794021e-06 3.0206174415e-06 -7.9584424384e-08
          1.0118529093e-06 -2.297496394e-06 -3.6486817407e-06 5.0951396109e-07 2.0861189114e-06 208333.33333
          1.0429914377e-06 -6.2297003751e-06 -1.892040018e-07 3.5415953296e-07 1.831966074e-06 -2.5737463147e-06
          6.5420275011e-07 9.9171302281e-08 208333.33334 -1.7386205179e-07 5.0689413911e-07 -1.5033583622e-07
          7.5756474557e-07 1.4412435121e-06 1.0324583855e-06 5.693358973e-07 -9.6330404631e-07 208333.33334
          -1.2946841502e-08 4.6727873269e-06 1.0913936421e-09 41666.666668 41666.666666 1.147382136e-06
          20833.333334 20833.333332 104166.66667 41666.666668 41666.666665 1.0708026821e-07
          -41666.666668 41666.666669 -2.1269806894e-06 -41666.666664 5.0924484185e-07 -1.9831277314e-06
          -20833.333334 20833.333335 104166.66667 -20833.333333 3.7049494495e-07 52083.333333
          -41666.666667 41666.666672 1.6667036107e-07 -41666.666663 -3.0409751162e-08 7.0780515671e-08
          -41666.666669 41666.666666 -3.8503494579e-06 -20833.333333 20833.333334 104166.66667
          -41666.666669 41666.666667 8.9261448011e-08 -41666.666665 41666.666666 -1.4100878616e-06
          -20833.333333 20833.333331 104166.66667 -41666.666666 41666.666672 -4.0716258809e-08
          -41666.666668 41666.666668 -4.0845770855e-07 -20833.333334 20833.333333 104166.66667
          -41666.666667 41666.666668 -1.5195837477e-07 -41666.666668 41666.666665 -3.1384333852e-06
          -20833.333335 20833.333335 104166.66667 -41666.666667 41666.666665 -1.7982529243e-07
          -41666.66667 41666.666669 -2.9992952477e-06 -20833.333335 20833.333333 104166.66667
          -41666.66667 41666.666666 -1.0805524653e-07 -41666.666668 41666.666666 9.3720154837e-07
          -20833.333333 20833.333332 104166.66667 -41666.666668 41666.666665 1.2303644326e-08
          1.8871641527e-07 41666.666664 2.6815687306e-06 1.3716050896e-07 20833.33333 52083.333336
          4.7306769332e-09 41666.666665 6.486516213e-08 -8.8063041228e-07 5.3257463151e-07 -6.669506547e-07
          41666.666668 -41666.666665 -6.2515755417e-07 -2.5796891502e-07 -41666.666664 -2.3945394787e-06
          -41666.666668 -41666.666665 -7.2384136729e-07 -6.4031892625e-07 3.0820810935e-06 -208333.33334
          20833.333333 -20833.333331 -104166.66667 -1.8894556429e-07 -20833.33333 -52083.333336
          -20833.333334 -20833.333331 -104166.66667 -3.6618601752e-07 -2.3495886126e-07 2.1307350835e-06
          41666.66667 -41666.666668 2.8371141525e-06 -6.3617540767e-07 1.611202606e-06 -208333.33334
          20833.333335 -20833.333333 -104166.66667 -9.2361639677e-07 3.2875323086e-06 2.4925830076e-06
          41666.666668 -41666.666665 2.5300178095e-06 -4.3744931253e-07 -1.0816911526e-06 -208333.33334
          20833.333335 -20833.333334 -104166.66667 -3.6398013517e-07 -8.1490725279e-10 -5.8858131524e-07
          41666.666668 -41666.666667 -3.6433630157e-07 1.4196097522e-07 1.8424943846e-06 -208333.33333
          20833.333334 -20833.333332 -104166.66667 -4.9827685737e-06 -1.7896018107e-06 9.0657704277e-07
          41666.666665 -41666.666666 8.3164923126e-07 -1.9041590753e-06 1.3937715266e-06 -208333.33333
          20833.333333 -20833.333331 -104166.66667 -1.3978894242e-06 1.5057594283e-07 8.4532803157e-07
          41666.666669 -41666.666665 3.6845740397e-06 -9.7021028982e-07 -1.4397628547e-06 -208333.33333
          20833.333333 -20833.333334 -104166.66667 1.4035589901e-06 -8.1332473201e-07 1.1596348486e-06
          41666.666668 -41666.666668 2.3339089239e-06 1.0450412217e-06 -4.3781619752e-07 -208333.33333
          20833.333334 -20833.333334 -104166.66666 41666.666668 41666.666667 2.3714383133e-06
          41666.666664 -2.1218761503e-07 2.152097295e-06 20833.333334 20833.333334 -104166.66666
          20833.333333 -7.7152776612e-08 -52083.333333 -1.0525399855e-06 -7.9342498793e-07 1.9157378119e-06
          -41666.666671 -41666.666668 2.6337947929e-06 -3.7438628077e-07 1.1817646737e-06 -208333.33334
          -20833.333335 -20833.333333 -104166.66667 -6.0575825571e-07 -2.7010610211e-06 3.1446834328e-06
          -4.269313625e-07 1.1103948054e-06 -208333.33334 1.8896725984e-06 1.7946913431e-06 1.2671298464e-06
          1.7136277703e-06 4.7423600336e-07 -208333.33334 2.2880533468e-06 -4.8826041166e-07 -8.891656762e-07
          1.4598655025e-06 2.4453729566e-06 -208333.33333 -2.3015351093e-06 2.8133727028e-06 -1.9553554012e-06
          -1.2025870572e-06 3.5372468119e-06 -208333.33333 -2.108717464e-06 -7.3152477853e-07 -3.3372052712e-06
          -8.4720079179e-07 -6.0125239543e-07 -208333.33333 -1.5471392071e-06 -1.6182057152e-06 1.0707735782e-06
          -1.0570011199e-06 4.0887607611e-07 -208333.33333 41666.666669 41666.666664 3.847766493e-06
          20833.333333 20833.333333 -104166.66667 -1.1240746646e-07 2.0076004148e-06 2.2898530005e-06
          -41666.666669 -41666.666666 2.3441025405e-06 -2.6977460213e-07 -2.0709230739e-06 -208333.33333
          -20833.333335 -20833.333335 -104166.66667 -2.8573727405e-06 1.2016644177e-06 1.2351738405e-06
          -2.3749399395e-06 3.7198333303e-08 -208333.33334 -4.4762399538e-07 3.9460210246e-06 -1.0849689716e-06
          -3.0673112337e-07 6.2252365751e-07 -208333.33333 -1.4397601002e-06 2.4250330171e-06 -1.307707862e-07
          -2.6723400917e-07 -7.7741788118e-07 -208333.33333 -4.6684529128e-06 -3.4909680835e-07 5.8782461565e-07
          -3.1793592477e-06 -3.9691076381e-07 -208333.33333 -2.5339508873e-06 -3.8854268496e-06 -1.7367929104e-06
          -1.3556854958e-06 -4.5811102609e-06 -208333.33333 -5.3612787049e-06 7.6586729847e-07 1.3508106349e-06
          -2.1400004643e-06 -2.3300453904e-06 -208333.33333 41666.666665 41666.666665 1.1146184988e-06
          20833.333333 20833.33333 -104166.66667 -4.0106165431e-07 -1.8257123884e-06 -5.2683753893e-07
          -41666.666668 -41666.666668 -4.1472230805e-07 -6.4397718654e-07 4.3679028749e-07 -208333.33333
          -20833.333334 -20833.333333 -104166.66667 -3.0914953381e-06 -1.2580712792e-06 -7.0699024945e-07
          -1.9878608384e-06 1.9066501409e-06 -208333.33333 5.5700850734e-07 2.5267981982e-06 1.2085365597e-08
          -3.3442226923e-07 -6.5570566221e-07 -208333.33333 -5.0833842506e-07 3.4855111153e-07 3.5457924241e-07
          -3.5686955888e-07 1.8154241843e-07 -208333.33333 -1.6318571217e-06 -2.3942338885e-06 -4.7497451305e-08
          -4.0909540729e-07 5.776710168e-07 -208333.33333 1.8794569195e-06 4.1985913413e-08 -6.2886101659e-07
          1.1784154661e-06 -3.0233786674e-06 -208333.33333 -9.1297737788e-07 -5.9832018451e-07 -1.36125891e-07
          -2.1461744554e-07 -2.5170193112e-06 -208333.33333 41666.666668 41666.666667 -7.7816366684e-08
          20833.333334 20833.333332 -104166.66667 4.2890688411e-06 -3.7145691749e-06 1.3354801922e-06
          -41666.666666 -41666.666667 9.5868017524e-07 1.4369907609e-06 -1.0041912901e-07 -208333.33333
          -20833.333333 -20833.333332 -104166.66667 1.52430315e-06 2.5060871849e-06 -1.4566758182e-06
          6.9657252264e-07 3.3660980989e-06 -208333.33333 3.7271511177e-06 7.2564944276e-07 9.0271350928e-07
          2.5454188807e-06 5.0171729526e-07 -208333.33333 4.687686513e-07 -1.1701413314e-06 3.1141098589e-09
          -4.1032242719e-07 1.5615696611e-06 -208333.33333 -6.7867011601e-07 -3.1339513953e-06 -1.0847070371e-06
          -4.8928120255e-07 -1.4976467355e-07 -208333.33333 1.5003310997e-06 -1.811178663e-06 1.3415919966e-06
          1.4331054212e-06 -5.9664671426e-07 -208333.33334 -1.4266740066e-06 -4.0102677303e-06 2.6781781344e-06
          -7.7380264144e-07 4.8637593864e-07 -208333.33334 41666.666668 41666.666665 2.6693305699e-06
          20833.333334 20833.333334 -104166.66667 5.9493346027e-07 -1.3727985788e-06 1.5490877558e-06
          -41666.666669 -41666.666666 3.943714546e-06 3.8924806078e-07 -2.6855086617e-06 -208333.33333
          -20833.333334 -20833.333335 -104166.66667 1.2371111316e-06 -3.2861862564e-08 -2.6344932849e-06
          2.6250442699e-07 -6.0405000113e-08 -208333.33333 1.4893510993e-06 -1.2618402252e-06 -1.3838798623e-06
          6.6317035781e-07 -2.5408953661e-06 -208333.33333 -3.1581277421e-06 3.1188319554e-06 -7.1013346314e-07
          -2.0549996653e-06 -6.3845800469e-07 -208333.33333 -2.9640102334e-06 1.2097007129e-07 1.1110387277e-06
          -2.4748573632e-06 8.8866363512e-07 -208333.33334 -7.6398324003e-07 2.5875087886e-06 2.9490111046e-06
          -5.5153027943e-07 -1.1018382793e-06 -208333.33334 -5.7609960783e-07 -1.3773169485e-06 1.9294311642e-06
          -7.7785708864e-07 -2.5523877412e-06 -208333.33334 41666.66667 41666.666667 2.7588612284e-06
          20833.333335 20833.333332 -104166.66667 -2.3752239279e-06 -1.6840240278e-06 1.9524959498e-06
          -41666.666668 -41666.666669 2.6445413823e-06 -1.7924893962e-06 -1.2241289369e-06 -208333.33333
          -20833.333334 -20833.333335 -104166.66666 5.5793590854e-07 1.4560646378e-07 1.7553393263e-06