<?xml version="1.0"?>
<VTKFile type="UnstructuredGrid" version="0.1" byte_order="LittleEndian" header_type="UInt32">
  <UnstructuredGrid>
    <FieldData>
      <DataArray type="Int8" Name="IntegrationPointMetaData" NumberOfTuples="237" format="ascii" RangeMin="34" RangeMax="125">
        123 34 105 110 116 101
        103 114 97 116 105 111
        110 95 112 111 105 110
        116 95 97 114 114 97
        121 115 34 58 91 123
        34 105 110 116 101 103
        114 97 116 105 111 110
        95 111 114 100 101 114
        34 58 50 44 34 110
        97 109 101 34 58 34
        115 105 103 109 97 95
        105 112 34 44 34 110
        117 109 98 101 114 95
        111 102 95 99 111 109
        112 111 110 101 110 116
        115 34 58 54 125 44
        123 34 105 110 116 101
        103 114 97 116 105 111
        110 95 111 114 100 101
        114 34 58 50 44 34
        110 97 109 101 34 58
        34 101 112 115 105 108
        111 110 95 105 112 34
        44 34 110 117 109 98
        101 114 95 111 102 95
        99 111 109 112 111 110
        101 110 116 115 34 58
        54 125 44 123 34 105
        110 116 101 103 114 97
        116 105 111 110 95 111
        114 100 101 114 34 58
        50 44 34 110 97 109
        101 34 58 34 101 112
        115 105 108 111 110 95
        109 95 105 112 34 44
        34 110 117 109 98 101
        114 95 111 102 95 99
        111 109 112 111 110 101
        110 116 115 34 58 54
        125 93 125
      </DataArray>
      <DataArray type="Int8" Name="OGS_VERSION" NumberOfTuples="40" format="ascii" RangeMin="45" RangeMax="121">
        54 46 50 46 48 45
        49 53 45 103 53 51
        56 49 101 101 99 99
        100 46 100 105 114 116
        121 46 50 48 49 57
        48 52 48 49 49 53
        48 52 49 50
      </DataArray>
      <DataArray type="Float64" Name="epsilon_ip" NumberOfComponents="6" NumberOfTuples="2160" format="ascii" RangeMin="2.8175416343e-06" RangeMax="0.00049718245835">
        2.8175416343e-06 9.0011961208e-19 2.6381984312e-18 -2.7801188779e-16 -2.1826714156e-18 2.7692444199e-16
        2.8175416344e-06 1.1557658017e-18 -2.3575266385e-19 -2.7734248032e-16 -1.2356959474e-18 -1.7041775952e-18
        2.8175416343e-06 9.2419854198e-19 -3.1097037589e-18 -2.766066182e-16 -2.1841125459e-19 -2.7791733427e-16
        2.8175416343e-06 -7.1976236003e-20 1.9000971361e-18 2.1211188032e-19 -2.8259859152e-19 2.7378405736e-16
        2.8175416344e-06 2.3350523791e-19 -1.1144724082e-18 1.5563509679e-19 -3.5780406266e-20 -2.0322008733e-18
        2.8175416343e-06 5.1773262561e-20 -4.1290419525e-18 -1.2943420405e-19 2.8134700361e-19 -2.7958910478e-16
        2.8175416343e-06 -1.0440720841e-18 3.0495238561e-18 2.7853139631e-16 1.5925565904e-18 2.7330309225e-16
        2.8175416344e-06 -6.8875532584e-19 -1.0566413742e-19 2.7793766235e-16 1.1392174927e-18 -1.6117741411e-18
        2.8175416343e-06 -8.2065201686e-19 -3.2608521309e-18 2.786027423e-16 7.5618761964e-19 -2.7928036012e-16
        1.25e-05 1.1107422495e-18 1.4422495215e-18 -2.7179469903e-16 -2.070035029e-18 2.7108157461e-16
        1.25e-05 1.207597057e-18 -1.2029759515e-18 -2.7018932771e-16 -1.1590140158e-18 1.480530752e-19
        1.25e-05 8.7879380092e-19 -3.8482014246e-18 -2.7141159308e-16 -1.9400855109e-19 -2.7228022902e-16
        1.25e-05 3.6754826569e-19 6.9794890488e-19 -6.9791728898e-19 -1.6458591859e-19 2.6862025409e-16
        1.25e-05 4.6983681649e-19 -2.0552454712e-18 -4.2614945566e-20 5.9371301676e-20 -7.572333452e-20
        1.25e-05 1.4646730372e-19 -4.8084398473e-18 -1.1422547988e-19 3.3731297346e-19 -2.6644998624e-16
        1.25e-05 -3.7564571814e-19 1.7534339377e-18 2.7173995012e-16 1.7381463202e-18 2.6950833513e-16
        1.25e-05 -2.6792342403e-19 -1.1077293414e-18 2.7050300667e-16 1.2750397475e-18 -5.8699857202e-19
        1.25e-05 -5.8585919348e-19 -3.9688926205e-18 2.6841659869e-16 8.6591762635e-19 -2.6944894687e-16
        2.2182458366e-05 7.1324044219e-19 2.1059807043e-18 -2.6628665848e-16 -2.0801352041e-18 2.6830529406e-16
        2.2182458366e-05 8.929164687e-19 -3.1051914668e-19 -2.6196286972e-16 -1.1668395708e-18 1.2720235828e-18
        2.2182458366e-05 7.0848981735e-19 -2.7270189977e-18 -2.6667655598e-16 -2.1588425908e-19 -2.6464984233e-16
        2.2182458366e-05 1.9894832261e-19 1.279022616e-18 -1.0137952593e-18 -2.9011610794e-19 2.6575639094e-16
        2.2182458366e-05 3.3965655141e-19 -1.2127965918e-18 -5.8585600668e-19 -5.0790777543e-20 1.5340284621e-18
        2.2182458366e-05 1.1626210236e-19 -3.7046157997e-18 -1.1818292341e-19 2.2619423126e-19 -2.6220396951e-16
        2.2182458366e-05 -3.1534379697e-19 2.1641078114e-18 2.614602614e-16 1.5193868871e-18 2.6510026063e-16
        2.2182458366e-05 -2.1360336587e-19 -4.0303075332e-19 2.6486997075e-16 1.0847419146e-18 6.6825890052e-19
        2.2182458366e-05 -4.7596561263e-19 -2.970169318e-18 2.6451695808e-16 6.8775662046e-19 -2.6759065939e-16
        2.8175416343e-06 5.4227671367e-19 3.2383328287e-18 -2.7885702084e-16 -3.6713348082e-19 2.7959095158e-16
        2.8175416344e-06 8.5031867235e-19 2.3575266385e-19 -2.775456649e-16 -1.2684726238e-18 -1.8696742456e-18
        2.8175416343e-06 8.1093244409e-19 -2.766827501e-18 -2.7774695662e-16 -2.088517559e-18 -2.8226486753e-16
        2.8175416344e-06 7.2428899088e-20 4.2796409885e-18 5.6625910252e-19 -2.7699217088e-19 2.7722884005e-16
        2.8175416344e-06 1.5491386225e-19 1.1144724082e-18 3.962702743e-19 -6.0853212806e-20 -1.1061234191e-18
        2.8175416343e-06 -1.1002936152e-19 -2.0506961721e-18 9.8682435913e-20 2.3657995299e-19 -2.8410231173e-16
        2.8175416343e-06 -3.974189155e-19 3.4334211332e-18 2.7904497801e-16 -7.4072363196e-20 2.7654058501e-16
        2.8175416344e-06 -5.4049094785e-19 1.0566413742e-19 2.7827886309e-16 1.2595446959e-18 -8.3992348323e-19
        2.8175416343e-06 -1.0309911671e-18 -3.2220928583e-18 2.7957517685e-16 2.6744559628e-18 -2.8128705498e-16
        1.25e-05 9.4108028233e-19 3.9600332328e-18 -2.7168476627e-16 -3.3844498882e-19 2.6989512266e-16
        1.25e-05 1.1856346759e-18 1.2029759515e-18 -2.695523149e-16 -1.1984790987e-18 1.5505193418e-19
        1.25e-05 1.0929300414e-18 -1.5540813298e-18 -2.7071496479e-16 -1.9924668282e-18 -2.7415476482e-16
        1.25e-05 3.4539782837e-19 4.9443955131e-18 2.5167643299e-20 -2.669036936e-19 2.7204510226e-16
        1.25e-05 5.2487449158e-19 2.0552454712e-18 1.4143987531e-20 -5.8415464675e-20 -3.7628061361e-19
        1.25e-05 3.6709212668e-19 -8.339045707e-19 -6.0363287112e-19 2.1611914455e-19 -2.714032467e-16
        1.25e-05 -2.5028462559e-19 4.1289721439e-18 2.7167218424e-16 -1.6282353319e-19 2.7241902816e-16
        1.25e-05 -1.3588569274e-19 1.1077293414e-18 2.6990458387e-16 1.1141870345e-18 1.2581574775e-18
        1.25e-05 -3.5874578802e-19 -1.9135134611e-18 2.690686083e-16 2.4572439825e-18 -2.7243214142e-16
        2.2182458366e-05 7.0947326222e-19 2.8220535444e-18 -2.6502999823e-16 -3.1783116246e-19 2.6403252728e-16
        2.2182458366e-05 8.6957898288e-19 3.1051914668e-19 -2.6320725532e-16 -1.1747893143e-18 1.2790224417e-18
        2.2182458366e-05 7.0259483425e-19 -2.2010152511e-18 -2.6460294901e-16 -1.9809489133e-18 -2.6282474594e-16
        2.2182458366e-05 -1.2043831111e-20 3.8259280953e-18 -6.8841932529e-19 -2.5440932803e-19 2.6402477165e-16
        2.2182458366e-05 2.4346342432e-19 1.2127965918e-18 -7.1297331799e-19 -9.1800903375e-20 1.5401298663e-18
        2.2182458366e-05 1.7188081046e-19 -1.4003349116e-18 -1.1909511719e-18 1.2160607415e-19 -2.641473733e-16
        2.2182458366e-05 -7.3356092444e-19 3.1177593626e-18 2.6343691292e-16 -2.3868826099e-19 2.6461756712e-16
        2.2182458366e-05 -3.8265213424e-19 4.0303075332e-19 2.6302526573e-16 9.4348674017e-19 1.4401095584e-18
        2.2182458366e-05 -3.5883321333e-19 -2.3116978559e-18 2.6277859664e-16 2.1764602942e-18 -2.6081729971e-16
        2.8175416343e-06 9.2456175665e-19 3.0123939976e-18 -2.7850829835e-16 -2.8811234239e-18 2.770319184e-16
        2.8175416344e-06 5.7938245059e-19 -1.2254650521e-19 -2.7626748449e-16 -1.2692501582e-18 -1.759484144e-18
        2.8175416343e-06 7.2141659379e-19 -3.2574870081e-18 -2.7991683727e-16 2.3752371638e-19 -2.8034870594e-16
        2.8175416344e-06 7.1976236003e-20 1.7715041096e-18 -6.087160079e-20 -3.7037476335e-19 2.7635533026e-16
        2.8175416344e-06 -2.3350523791e-19 -1.1532376108e-18 1.6503164478e-19 2.6139050693e-20 -1.1298689035e-18
        2.8175416343e-06 -5.1773262561e-20 -4.0779793313e-18 6.6066273347e-19 3.1755347355e-19 -2.7711667406e-16
        2.8175416343e-06 -7.8060928465e-19 2.4741196758e-18 2.795760668e-16 2.1205249812e-18 2.7372278637e-16
        2.8175416343e-06 -1.0463929264e-18 -2.4042326232e-19 2.7851847419e-16 1.3016793435e-18 -2.4162666649e-18
        2.8175416343e-06 -8.2496311891e-19 -2.9549662005e-18 2.7982727634e-16 3.7773431465e-19 -2.7926833795e-16
        1.25e-05 2.9095707354e-19 1.7512988957e-18 -2.7088678643e-16 -2.4096037717e-18 2.6913363842e-16
        1.25e-05 1.8110226396e-19 -1.0982378966e-18 -2.7273909225e-16 -9.795079994e-19 2.8831244766e-20
        1.25e-05 4.9690551795e-19 -3.9477746889e-18 -2.7045765898e-16 3.7662615882e-19 -2.686057941e-16
        1.25e-05 -3.6754826569e-19 7.0507822155e-19 -7.0090887794e-20 -1.5904313776e-19 2.692494698e-16
        1.25e-05 -4.6983681649e-19 -1.9965353426e-18 2.7344028576e-19 1.4547137888e-19 6.8753804931e-19
        1.25e-05 -1.4646730372e-19 -4.6981489068e-18 -1.099414184e-19 3.7602428146e-19 -2.6829348382e-16
        1.25e-05 -1.0260536049e-18 1.4843619952e-18 2.7038365672e-16 2.0877343668e-18 2.7191339483e-16
        1.25e-05 -1.1207758969e-18 -1.0693283409e-18 2.7260030041e-16 1.2666676278e-18 4.2573436649e-20
        1.25e-05 -7.8984012539e-19 -3.6230186769e-18 2.7083933736e-16 3.7163927471e-19 -2.7114159387e-16
        2.2182458366e-05 2.654768352e-19 2.1617904597e-18 -2.6675351703e-16 -2.2657425482e-18 2.6307531054e-16
[...]
      <PointData>
        <DataArray type="Float64" Name="displacement" NumberOfComponents="3" format="ascii" RangeMin="0" RangeMax="0.00025">
          -0.000249375 6.7120981862e-21 7.9322820021e-21 -0.00025 3.3915267485e-21 -2.3934292978e-20
          -0.00025 0 -1.4607125842e-20 -0.000249375 0 5.2061173357e-21
          -0.000249375 4.2555412992e-21 0 -0.00025 2.1308254119e-20 0
          -0.00025 0 0 -0.000249375 0 0
          -0.000249375 -1.9322650081e-20 0 -0.00025 -2.5544764265e-20 0
          -0.00025 0 0 -0.000249375 0 0
          -0.000249375 0 2.5006244803e-22 -0.00025 0 2.5260761569e-20
          -0.000249375 0 0 -0.00025 0 0
          -0.000249375 0 0 -0.00025 0 0
          -0.0002475 -7.7613149677e-22 9.1562421375e-22 -0.0002475 0 -1.6845068317e-20
          -0.0002475 1.2573201109e-20 0 -0.0002475 0 0
          -0.0002475 -5.832617211e-21 0 -0.0002475 0 0
          -0.0002475 0 -1.0656967025e-20 -0.0002475 0 0
          -0.0002475 0 0 -0.000244375 7.0369592555e-21 -8.1796004709e-21
          -0.000244375 0 1.1150057176e-20 -0.000244375 -7.9919469359e-21 0
          -0.000244375 0 0 -0.000244375 -8.3373390316e-21 0
          -0.000244375 0 0 -0.000244375 0 -1.7605165685e-20
          -0.000244375 0 0 -0.000244375 0 0
          -0.00024 -3.3101496196e-21 1.5892406147e-20 -0.00024 0 -2.8302129811e-20
          -0.00024 1.0981252002e-20 0 -0.00024 0 0
          -0.00024 3.0041852494e-21 0 -0.00024 0 0
          -0.00024 0 9.9375532024e-21 -0.00024 0 0
          -0.00024 0 0 -0.000234375 1.3598287514e-20 -1.8370443683e-20
          -0.000234375 0 -1.3610876887e-20 -0.000234375 -1.6313673117e-20 0
          -0.000234375 0 0 -0.000234375 -1.8781303584e-20 0
          -0.000234375 0 0 -0.000234375 0 -2.0222097316e-21
          -0.000234375 0 0 -0.000234375 0 0
          -0.0002275 -1.1709106484e-20 1.2514917421e-20 -0.0002275 0 1.6344297763e-20
          -0.0002275 -8.6303259124e-22 0 -0.0002275 0 0
          -0.0002275 1.3372983031e-20 0 -0.0002275 0 0
          -0.0002275 0 -8.9544434179e-21 -0.0002275 0 0
          -0.0002275 0 0 -0.000219375 7.6527149506e-21 -1.3807456039e-20
          -0.000219375 0 -1.1974798388e-20 -0.000219375 3.2785270784e-20 0
          -0.000219375 0 0 -0.000219375 -1.151938563e-20 0
          -0.000219375 0 0 -0.000219375 0 1.3728235375e-20
          -0.000219375 0 0 -0.000219375 0 0
          -0.00021 8.6961059936e-21 7.4979071833e-21 -0.00021 0 -1.2763849846e-20
          -0.00021 -1.5834419463e-20 0 -0.00021 0 0
          -0.00021 1.5145379088e-20 0 -0.00021 0 0
          -0.00021 0 -6.4819531366e-21 -0.00021 0 0
          -0.00021 0 0 -0.000199375 -7.6109288673e-21 -7.7022458095e-21
          -0.000199375 0 5.9381222434e-21 -0.000199375 2.0587656817e-20 0
          -0.000199375 0 0 -0.000199375 6.3564112828e-21 0
          -0.000199375 0 0 -0.000199375 0 6.3620019865e-21
          -0.000199375 0 0 -0.000199375 0 0
          -0.0001875 7.5434111157e-21 3.7828339939e-21 -0.0001875 0 -1.5589877545e-20
          -0.0001875 -1.7533903183e-20 0 -0.0001875 0 0
          -0.0001875 -9.7326534752e-21 0 -0.0001875 0 0
          -0.0001875 0 6.9176519426e-21 -0.0001875 0 0
          -0.0001875 0 0 -0.000174375 -1.8805753068e-21 1.0905326116e-20
          -0.000174375 0 -1.5777503678e-20 -0.000174375 5.2943886644e-21 0
          -0.000174375 0 0 -0.000174375 1.187566457e-20 0
          -0.000174375 0 0 -0.000174375 0 -2.1381376215e-21
          -0.000174375 0 0 -0.000174375 0 0
          -0.00016 9.9166380023e-21 -5.7497447044e-21 -0.00016 0 1.9755927597e-20
          -0.00016 -7.7498539678e-21 0 -0.00016 0 0
          -0.00016 -3.0114850381e-21 0 -0.00016 0 0
          -0.00016 0 6.9658506387e-21 -0.00016 0 0
          -0.00016 0 0 -0.000144375 -4.0074449175e-21 -2.1258525353e-21
          -0.000144375 0 -3.2163031104e-20 -0.000144375 -7.3300921686e-21 0
          -0.000144375 0 0 -0.000144375 5.6966908063e-21 0
          -0.000144375 0 0 -0.000144375 0 6.8412439891e-21
          -0.000144375 0 0 -0.000144375 0 0
          -0.0001275 1.0269300272e-20 1.7154076111e-22 -0.0001275 0 -1.5884989919e-22
          -0.0001275 3.1146866589e-20 0 -0.0001275 0 0
          -0.0001275 -1.7010010302e-20 0 -0.0001275 0 0
          -0.0001275 0 5.1008243408e-21 -0.0001275 0 0
          -0.0001275 0 0 -0.000109375 2.6777224647e-21 -2.3531762817e-20
          -0.000109375 0 -2.0858386119e-20 -0.000109375 -1.7187993237e-20 0
          -0.000109375 0 0 -0.000109375 1.6509461336e-20 0
          -0.000109375 0 0 -0.000109375 0 -7.7537630154e-21
          -0.000109375 0 0 -0.000109375 0 0
          -9e-05 -1.5807010974e-20 1.7131608365e-20 -9e-05 0 -3.74474675e-21
          -9e-05 -1.0451248417e-20 0 -9e-05 0 0
          -9e-05 -2.4988430616e-20 0 -9e-05 0 0
          -9e-05 0 -8.1880427388e-21 -9e-05 0 0
          -9e-05 0 0 -6.9375e-05 8.7469623918e-21 -2.0995168776e-20
          -6.9375e-05 0 5.7701022957e-21 -6.9375e-05 3.9277748538e-21 0
          -6.9375e-05 0 0 -6.9375e-05 1.9191156414e-21 0
          -6.9375e-05 0 0 -6.9375e-05 0 -1.4867663404e-20
          -6.9375e-05 0 0 -6.9375e-05 0 0
          -4.75e-05 -2.6699284886e-20 2.2235098094e-20 -4.75e-05 0 1.6881210439e-20
          -4.75e-05 -2.5531450482e-20 0 -4.75e-05 0 0
          -4.75e-05 -1.9412521887e-20 0 -4.75e-05 0 0
          -4.75e-05 0 8.5887799571e-21 -4.75e-05 0 0
          -4.75e-05 0 0 -2.4375e-05 2.2921311515e-20 1.9630517832e-20
          -2.4375e-05 0 -4.5560629955e-21 -2.4375e-05 2.7357125367e-20 0
          -2.4375e-05 0 0 -2.4375e-05 3.1628948231e-20 0
          -2.4375e-05 0 0 -2.4375e-05 0 3.7206983352e-20
          -2.4375e-05 0 0 -2.4375e-05 0 0
          0 7.4623623059e-21 3.024949078e-20 0 0 2.4559700776e-20
          0 -1.4237713407e-20 0 0 0 0
          0 1.7438039232e-20 0 0 0 0
          0 0 2.9221276829e-20 0 0 0
          0 0 0 -0.00025 0 -6.4169637916e-21
          -0.00025 0 2.1720543942e-21 -0.00025 1.4039682629e-20 0
          -0.00025 1.0656072909e-20 -4.9194903846e-20 -0.00025 -2.8304497535e-20 0
          -0.00025 3.6355504859e-20 -4.2473188859e-21 -0.00025 -2.2663250875e-20 5.1742697667e-21
          -0.00025 -1.0450319908e-20 0 -0.00025 -1.0933696006e-21 9.9190972004e-21
          -0.00025 7.0143920142e-22 0 -0.00025 0 -3.8761941324e-21
          -0.00025 0 -8.5398426373e-21 -0.00024984375 0 0
          -0.00024984375 0 1.9692583332e-20 -0.00024984375 0 0
          -0.00024984375 -1.7108043771e-20 0 -0.00024984375 1.0496078562e-20 -4.3125002279e-21
          -0.00024984375 1.0679967762e-20 0 -0.00024984375 0 0
          -0.00024984375 0 9.7650612494e-21 -0.00024984375 0 0
          -0.000249375 0 8.082801754e-22 -0.000249375 0 -1.7818968254e-20
          -0.000249375 4.71363282e-21 0 -0.000249375 -2.0579305443e-21 2.3740158048e-20
          -0.000249375 8.7675886698e-21 0 -0.000249375 -9.8141183227e-21 6.9300305497e-21
          -0.000249375 -1.8425629547e-21 -1.284791948e-21 -0.000249375 2.8565670398e-20 0
          -0.000249375 -7.3003304607e-22 -1.318999584e-20 -0.000249375 -1.6317470608e-20 0
          -0.000249375 0 8.3257827411e-21 -0.000249375 0 1.6529517335e-20
          -0.00024859375 0 0 -0.00024859375 0 6.4079202143e-21
          -0.00024859375 0 0 -0.00024859375 -1.6813446019e-20 0
          -0.00024859375 1.3612762394e-20 -2.1890166687e-20 -0.00024859375 -1.957116727e-20 0
          -0.00024859375 0 0 -0.00024859375 0 9.769379122e-21
          -0.00024859375 0 0 -0.0002475 0 -5.6761023851e-21
          -0.0002475 0 3.8263391427e-21 -0.0002475 -1.9640765892e-21 0
          -0.0002475 3.6183358132e-21 -1.1640534645e-20 -0.0002475 -8.5434682014e-21 0
          -0.0002475 8.7697325568e-21 8.451728373e-22 -0.0002475 -4.4977416506e-21 2.2958209679e-21
          -0.0002475 -3.6445095612e-21 0 -0.0002475 -3.3341570435e-21 1.4107212844e-20
          -0.0002475 -4.8413284716e-21 0 -0.0002475 0 3.6389432689e-22
          -0.0002475 0 -1.259039482e-20 -0.00024609375 0 0
          -0.00024609375 0 3.008089467e-21 -0.00024609375 0 0
          -0.00024609375 1.086268512e-20 0 -0.00024609375 -1.0226711393e-20 5.0011027568e-21
          -0.00024609375 1.2733504314e-20 0 -0.00024609375 0 0
          -0.00024609375 0 -4.1034732474e-21 -0.00024609375 0 0
          -0.000244375 0 2.3774458477e-21 -0.000244375 0 -1.7163597673e-21
          -0.000244375 -7.8107192008e-22 0 -0.000244375 -3.5307538199e-21 -5.8102626452e-21
          -0.000244375 5.1803606302e-21 0 -0.000244375 -1.2156979582e-21 3.7957441849e-21
          -0.000244375 -1.797788038e-21 7.3220132711e-21 -0.000244375 2.2812821923e-21 0
          -0.000244375 5.9673947257e-21 -2.9918002557e-20 -0.000244375 4.6529452197e-21 0
          -0.000244375 0 -1.5446610735e-20 -0.000244375 0 -1.5514937774e-21
          -0.00024234375 0 0 -0.00024234375 0 1.1351619472e-20
          -0.00024234375 0 0 -0.00024234375 -3.3603243088e-21 0
          -0.00024234375 -2.5047827513e-21 -1.474787776e-20 -0.00024234375 9.6052564634e-21 0
          -0.00024234375 0 0 -0.00024234375 0 1.5906714248e-20
          -0.00024234375 0 0 -0.00024 0 -3.2620356652e-21
          -0.00024 0 -1.8241304144e-20 -0.00024 1.3475000483e-21 0
          -0.00024 7.0364142704e-21 3.6980778794e-21 -0.00024 -7.8010845666e-21 0
          -0.00024 1.152327281e-20 5.1751807565e-22 -0.00024 3.5313093058e-21 -5.6331446346e-22
          -0.00024 -2.6513787424e-21 0 -0.00024 8.7826012952e-21 2.6866087459e-20
          -0.00024 -1.7585375106e-20 0 -0.00024 0 5.1364028437e-21
          -0.00024 0 9.1921970789e-23 -0.00023734375 0 0
          -0.00023734375 0 6.3737408408e-21 -0.00023734375 0 0
          -0.00023734375 -1.050684528e-20 0 -0.00023734375 -4.9099779004e-21 -1.6433925322e-21
          -0.00023734375 5.9330194414e-21 0 -0.00023734375 0 0
          -0.00023734375 0 3.44028308e-22 -0.00023734375 0 0
          -0.000234375 0 -2.4008408548e-20 -0.000234375 0 -2.4743804607e-22
          -0.000234375 1.2386338648e-20 0 -0.000234375 -4.4996463917e-21 -1.6836926633e-20
          -0.000234375 -1.8347391769e-21 0 -0.000234375 -7.7522851345e-21 -4.1625646815e-22
          -0.000234375 -1.8522508548e-20 -2.0069052832e-21 -0.000234375 3.2933792938e-21 0
          -0.000234375 -7.8426252331e-21 -1.8866350845e-20 -0.000234375 1.7668752625e-20 0
          -0.000234375 0 -8.6320585681e-21 -0.000234375 0 -7.9552704424e-21
          -0.00023109375 0 0 -0.00023109375 0 -1.6558021368e-20
          -0.00023109375 0 0 -0.00023109375 1.3506879313e-22 0
          -0.00023109375 4.3713490473e-21 1.661952685e-20 -0.00023109375 -6.3133619367e-21 0
          -0.00023109375 0 0 -0.00023109375 0 -2.5034941642e-21
          -0.00023109375 0 0 -0.0002275 0 3.0562247788e-20
          -0.0002275 0 1.2076889404e-20 -0.0002275 -2.1526012548e-20 0
          -0.0002275 6.4101358245e-21 1.0056221244e-20 -0.0002275 -7.8841803595e-21 0
          -0.0002275 -3.6687273535e-21 -1.5834859181e-21 -0.0002275 2.347718358e-20 -1.7897747595e-21
          -0.0002275 -7.0942454775e-21 0 -0.0002275 2.4664974063e-21 -8.6811304009e-21
          -0.0002275 -2.2332123224e-20 0 -0.0002275 0 8.6699161042e-21
          -0.0002275 0 1.8934021575e-20 -0.00022359375 0 0
          -0.00022359375 0 1.6594134862e-20 -0.00022359375 0 0
          -0.00022359375 -4.6951081453e-21 0 -0.00022359375 -1.9519677848e-20 -3.7078485872e-21
          -0.00022359375 8.0770319465e-21 0 -0.00022359375 0 0
          -0.00022359375 0 -6.5667360577e-21 -0.00022359375 0 0
          -0.000219375 0 -1.9749383202e-20 -0.000219375 0 -1.4237830103e-20
          -0.000219375 2.3808268516e-20 0 -0.000219375 -8.0576761117e-22 -1.2191839716e-20
          -0.000219375 4.9008069555e-21 0 -0.000219375 2.2574776628e-20 1.8473471895e-21
          -0.000219375 -2.27802521e-20 4.7197670366e-21 -0.000219375 6.4112905359e-21 0
          -0.000219375 3.7134094997e-21 1.8925444766e-20 -0.000219375 1.8081043428e-20 0
          -0.000219375 0 -5.5178723324e-21 -0.000219375 0 -1.3770602764e-20
          -0.00021484375 0 0 -0.00021484375 0 -2.5287197738e-20
          -0.00021484375 0 0 -0.00021484375 -3.7267594734e-22 0
          -0.00021484375 2.3674201842e-20 1.0372158323e-20 -0.00021484375 -8.7533909586e-21 0
          -0.00021484375 0 0 -0.00021484375 0 -8.8571108072e-21
          -0.00021484375 0 0 -0.00021 0 1.1023834352e-20
          -0.00021 0 1.2859830108e-20 -0.00021 3.3851485953e-21 0
          -0.00021 2.7356727982e-21 -4.2036235422e-22 -0.00021 1.8300320852e-20 0
          -0.00021 -7.4566106877e-21 -1.1712309024e-20 -0.00021 2.3607559054e-20 -6.4159962695e-21
          -0.00021 1.2932872638e-20 0 -0.00021 6.1252772594e-21 -2.3687056873e-20
          -0.00021 -2.4698193765e-21 0 -0.00021 0 1.4016048403e-20
          -0.00021 0 1.411804975e-20 -0.00020484375 0 0
          -0.00020484375 0 2.6228041718e-20 -0.00020484375 0 0
          -0.00020484375 -2.0402148968e-20 0 -0.00020484375 -1.4104595236e-20 -1.5463918585e-21
          -0.00020484375 9.1292575407e-22 0 -0.00020484375 0 0
          -0.00020484375 0 1.289468465e-20 -0.00020484375 0 0
          -0.000199375 0 -1.7674205226e-20 -0.000199375 0 -1.4398218289e-20
          -0.000199375 -5.1633539135e-21 0 -0.000199375 5.1254887607e-21 9.7475277271e-22
          -0.000199375 3.5693847789e-21 0 -0.000199375 1.3416141791e-20 7.5571469903e-21
          -0.000199375 -6.1598508164e-21 2.4009805588e-21 -0.000199375 8.6455208986e-22 0
          -0.000199375 -6.4089615628e-22 1.0847805282e-20 -0.000199375 -2.6390589641e-22 0
          -0.000199375 0 -1.6068915877e-20 -0.000199375 0 -1.5223768203e-20
          -0.00019359375 0 0 -0.00019359375 0 1.8154952448e-20
          -0.00019359375 0 0 -0.00019359375 -4.2598080421e-21 0
          -0.00019359375 4.4100766025e-21 -1.7224137729e-20 -0.00019359375 -7.7680706991e-21 0
          -0.00019359375 0 0 -0.00019359375 0 2.3124634657e-20
          -0.00019359375 0 0 -0.0001875 0 4.2676273585e-21
          -0.0001875 0 -3.0636471794e-21 -0.0001875 1.6437897298e-20 0
          -0.0001875 2.9744167794e-22 -3.6839656515e-21 -0.0001875 1.3483269546e-21 0
          -0.0001875 -1.2282783615e-20 5.6642561854e-21 -0.0001875 -3.5163039631e-21 8.798919589e-21
          -0.0001875 1.8951126363e-21 0 -0.0001875 6.9163094564e-22 1.0585050754e-21
          -0.0001875 1.6986518548e-20 0 -0.0001875 0 7.717670499e-21
          -0.0001875 0 7.6044745737e-21 -0.00018109375 0 0
          -0.00018109375 0 -1.4527613386e-20 -0.00018109375 0 0
          -0.00018109375 -2.7477170558e-21 0 -0.00018109375 1.2897276765e-20 -8.1099152482e-22
          -0.00018109375 -1.2251050046e-22 0 -0.00018109375 0 0
          -0.00018109375 0 -1.6918929011e-20 -0.00018109375 0 0
          -0.000174375 0 1.0474837593e-21 -0.000174375 0 -2.9383580878e-21
          -0.000174375 -8.3609557351e-21 0 -0.000174375 1.269353324e-20 -5.981420905e-21
          -0.000174375 2.4838836162e-21 0 -0.000174375 5.0752105687e-21 4.6598426236e-22
          -0.000174375 7.2695874435e-21 2.2080262672e-21 -0.000174375 4.5868426276e-21 0
          -0.000174375 6.0318042423e-21 1.5670320539e-21 -0.000174375 -8.0881798825e-21 0
          -0.000174375 0 -8.365341361e-21 -0.000174375 0 9.4871392574e-21
          -0.00016734375 0 0 -0.00016734375 0 1.0148643014e-20
          -0.00016734375 0 0 -0.00016734375 -2.977836893e-21 0
          -0.00016734375 -7.8376109663e-21 -1.6163742527e-20 -0.00016734375 1.1337543413e-20 0
          -0.00016734375 0 0 -0.00016734375 0 9.2380999377e-21
          -0.00016734375 0 0 -0.00016 0 -1.1143659108e-20
          -0.00016 0 1.3066118521e-21 -0.00016 7.1988713697e-21 0
          -0.00016 -4.0429602477e-21 1.2185817848e-20 -0.00016 1.9428553775e-21 0
          -0.00016 1.8487363005e-21 4.4044180128e-21 -0.00016 4.7275959106e-22 4.6166106988e-21
          -0.00016 3.0008068054e-21 0 -0.00016 2.6602433467e-21 9.3174008635e-21
          -0.00016 1.5487877376e-20 0 -0.00016 0 1.590850286e-22
          -0.00016 0 -2.2169478266e-20 -0.00015234375 0 0
          -0.00015234375 0 -1.2115153973e-20 -0.00015234375 0 0
          -0.00015234375 -1.3260444763e-20 0 -0.00015234375 -1.422276152e-21 3.3248813966e-21
          -0.00015234375 -4.240230935e-21 0 -0.00015234375 0 0
          -0.00015234375 0 -4.4235078728e-21 -0.00015234375 0 0
          -0.000144375 0 -1.4925822079e-21 -0.000144375 0 -1.6350098788e-20
          -0.000144375 3.2615156456e-21 0 -0.000144375 6.6031480476e-21 -2.017637857e-20
          -0.000144375 1.4774123002e-20 0 -0.000144375 -3.2246238237e-21 -1.5480833453e-20
          -0.000144375 7.0195841761e-21 -1.3954270705e-20 -0.000144375 3.4621069623e-21 0
          -0.000144375 5.4438672355e-21 -8.3549992382e-21 -0.000144375 -2.8699526709e-21 0
          -0.000144375 0 2.4100934685e-21 -0.000144375 0 2.1049618529e-20
          -0.00013609375 0 0 -0.00013609375 0 -1.5245537526e-20
          -0.00013609375 0 0 -0.00013609375 -7.4521327721e-21 0
          -0.00013609375 -2.6028313247e-23 1.1349818144e-20 -0.00013609375 -1.5714381532e-20 0
          -0.00013609375 0 0 -0.00013609375 0 -1.6281189774e-20
          -0.00013609375 0 0 -0.0001275 0 -1.2416408292e-20
          -0.0001275 0 -1.1971222629e-20 -0.0001275 -2.9038630233e-21 0
          -0.0001275 -6.2247045712e-21 2.6396528057e-21 -0.0001275 -9.9177020466e-21 0
          -0.0001275 2.0116872924e-20 -8.2583325934e-21 -0.0001275 -7.3332176709e-21 -2.4476517371e-21
          -0.0001275 -2.1306434443e-21 0 -0.0001275 -3.936306752e-21 1.6727546012e-20
          -0.0001275 -5.401766988e-21 0 -0.0001275 0 -3.1448148259e-21
          -0.0001275 0 -4.1029670852e-21 -0.00011859375 0 0
          -0.00011859375 0 -3.8270230727e-21 -0.00011859375 0 0
          -0.00011859375 9.7436205349e-21 0 -0.00011859375 -1.1227989268e-20 -2.0810736201e-20
          -0.00011859375 2.4688538425e-20 0 -0.00011859375 0 0
          -0.00011859375 0 -6.4226896425e-21 -0.00011859375 0 0
          -0.000109375 0 -7.2036970466e-21 -0.000109375 0 1.098863868e-20
          -0.000109375 1.0632963631e-20 0 -0.000109375 7.2044868771e-21 -2.6189843541e-20
          -0.000109375 -9.3847754367e-21 0 -0.000109375 -6.0269552375e-21 7.7407049142e-21
          -0.000109375 9.5751174382e-21 8.0842040417e-21 -0.000109375 2.2205532071e-21 0
          -0.000109375 4.5692056778e-21 -3.39072572e-20 -0.000109375 1.7709811475e-21 0
          -0.000109375 0 -3.8258767876e-21 -0.000109375 0 -1.5170887586e-20
          -9.984375e-05 0 0 -9.984375e-05 0 -1.6937233625e-20
          -9.984375e-05 0 0 -9.984375e-05 -4.7896311527e-21 0
          -9.984375e-05 1.0349165216e-21 -1.9617232996e-20 -9.984375e-05 -1.2809460042e-22 0
          -9.984375e-05 0 0 -9.984375e-05 0 -2.1237175307e-21
          -9.984375e-05 0 0 -9e-05 0 2.5852431139e-20
          -9e-05 0 2.5259209917e-21 -9e-05 -2.1046462302e-20 0
          -9e-05 -9.929257996e-21 3.715420388e-21 -9e-05 -2.3222052201e-21 0
          -9e-05 -1.3263478869e-20 1.1429144941e-20 -9e-05 -2.2696687499e-20 3.4925463412e-21
          -9e-05 2.3210744473e-21 0 -9e-05 -1.2283963387e-20 4.9323829743e-21
          -9e-05 -1.7940821409e-20 0 -9e-05 0 5.4586647594e-21
          -9e-05 0 1.8079844827e-20 -7.984375e-05 0 0
          -7.984375e-05 0 3.2550254709e-21 -7.984375e-05 0 0
          -7.984375e-05 -1.4074274487e-20 0 -7.984375e-05 -1.1700705362e-21 -6.6100895963e-21
          -7.984375e-05 -1.3098022858e-20 0 -7.984375e-05 0 0
          -7.984375e-05 0 1.2244283762e-20 -7.984375e-05 0 0
          -6.9375e-05 0 -2.0178337139e-20 -6.9375e-05 0 -4.3701435122e-21
          -6.9375e-05 1.7847901269e-20 0 -6.9375e-05 1.2769872217e-20 -1.7890114552e-21
          -6.9375e-05 1.1430881248e-20 0 -6.9375e-05 2.6253528505e-21 -5.9481045916e-21
          -6.9375e-05 2.5903616951e-21 5.747684537e-21 -6.9375e-05 -1.530590774e-23 0
          -6.9375e-05 1.9671197696e-20 -1.6832867557e-20 -6.9375e-05 2.7067580237e-20 0
          -6.9375e-05 0 -9.9587385962e-21 -6.9375e-05 0 -1.6061868527e-20
          -5.859375e-05 0 0 -5.859375e-05 0 2.7241465622e-20
          -5.859375e-05 0 0 -5.859375e-05 8.5966993608e-21 0