<?xml version="1.0"?>
<VTKFile type="UnstructuredGrid" version="0.1" byte_order="LittleEndian">
  <UnstructuredGrid>
    <Piece NumberOfPoints="153" NumberOfCells="100">
      <Points>
        <DataArray type="Float64" NumberOfComponents="3" format="ascii">
          0.000000000000e+000 0.000000000000e+000 0.000000000000e+000
          0.000000000000e+000 4.000000000000e-002 0.000000000000e+000
          2.000000000000e-002 4.000000000000e-002 0.000000000000e+000
          2.000000000000e-002 0.000000000000e+000 0.000000000000e+000
          0.000000000000e+000 8.000000000000e-002 0.000000000000e+000
          2.000000000000e-002 8.000000000000e-002 0.000000000000e+000
          0.000000000000e+000 1.200000000000e-001 0.000000000000e+000
          2.000000000000e-002 1.200000000000e-001 0.000000000000e+000
          0.000000000000e+000 1.600000000000e-001 0.000000000000e+000
          2.000000000000e-002 1.600000000000e-001 0.000000000000e+000
          0.000000000000e+000 2.000000000000e-001 0.000000000000e+000
          2.000000000000e-002 2.000000000000e-001 0.000000000000e+000
          0.000000000000e+000 2.400000000000e-001 0.000000000000e+000
          2.000000000000e-002 2.400000000000e-001 0.000000000000e+000
          0.000000000000e+000 2.800000000000e-001 0.000000000000e+000
          2.000000000000e-002 2.800000000000e-001 0.000000000000e+000
          0.000000000000e+000 3.200000000000e-001 0.000000000000e+000
          2.000000000000e-002 3.200000000000e-001 0.000000000000e+000
          0.000000000000e+000 3.600000000000e-001 0.000000000000e+000
          2.000000000000e-002 3.600000000000e-001 0.000000000000e+000
          0.000000000000e+000 4.000000000000e-001 0.000000000000e+000
          2.000000000000e-002 4.000000000000e-001 0.000000000000e+000
          0.000000000000e+000 4.400000000000e-001 0.000000000000e+000
          2.000000000000e-002 4.400000000000e-001 0.000000000000e+000
          0.000000000000e+000 4.800000000000e-001 0.000000000000e+000
          2.000000000000e-002 4.800000000000e-001 0.000000000000e+000
          0.000000000000e+000 5.200000000000e-001 0.000000000000e+000
          2.000000000000e-002 5.200000000000e-001 0.000000000000e+000
          0.000000000000e+000 5.600000000000e-001 0.000000000000e+000
          2.000000000000e-002 5.600000000000e-001 0.000000000000e+000
          0.000000000000e+000 6.000000000000e-001 0.000000000000e+000
          2.000000000000e-002 6.000000000000e-001 0.000000000000e+000
          0.000000000000e+000 6.400000000000e-001 0.000000000000e+000
          2.000000000000e-002 6.400000000000e-001 0.000000000000e+000
          0.000000000000e+000 6.800000000000e-001 0.000000000000e+000
          2.000000000000e-002 6.800000000000e-001 0.000000000000e+000
          0.000000000000e+000 7.200000000000e-001 0.000000000000e+000
          2.000000000000e-002 7.200000000000e-001 0.000000000000e+000
          0.000000000000e+000 7.600000000000e-001 0.000000000000e+000
          2.000000000000e-002 7.600000000000e-001 0.000000000000e+000
          0.000000000000e+000 8.000000000000e-001 0.000000000000e+000
          2.000000000000e-002 8.000000000000e-001 0.000000000000e+000
          0.000000000000e+000 8.400000000000e-001 0.000000000000e+000
          2.000000000000e-002 8.400000000000e-001 0.000000000000e+000
          0.000000000000e+000 8.800000000000e-001 0.000000000000e+000
          2.000000000000e-002 8.800000000000e-001 0.000000000000e+000
          0.000000000000e+000 9.200000000000e-001 0.000000000000e+000
          2.000000000000e-002 9.200000000000e-001 0.000000000000e+000
          0.000000000000e+000 9.600000000000e-001 0.000000000000e+000
          2.000000000000e-002 9.600000000000e-001 0.000000000000e+000
          0.000000000000e+000 1.000000000000e+000 0.000000000000e+000
          2.000000000000e-002 1.000000000000e+000 0.000000000000e+000
          0.000000000000e+000 1.040000000000e+000 0.000000000000e+000
          2.000000000000e-002 1.040000000000e+000 0.000000000000e+000
          0.000000000000e+000 1.080000000000e+000 0.000000000000e+000
          2.000000000000e-002 1.080000000000e+000 0.000000000000e+000
          0.000000000000e+000 1.120000000000e+000 0.000000000000e+000
          2.000000000000e-002 1.120000000000e+000 0.000000000000e+000
          0.000000000000e+000 1.160000000000e+000 0.000000000000e+000
          2.000000000000e-002 1.160000000000e+000 0.000000000000e+000
          0.000000000000e+000 1.200000000000e+000 0.000000000000e+000
          2.000000000000e-002 1.200000000000e+000 0.000000000000e+000
          0.000000000000e+000 1.240000000000e+000 0.000000000000e+000
          2.000000000000e-002 1.240000000000e+000 0.000000000000e+000
          0.000000000000e+000 1.280000000000e+000 0.000000000000e+000
          2.000000000000e-002 1.280000000000e+000 0.000000000000e+000
          0.000000000000e+000 1.320000000000e+000 0.000000000000e+000
          2.000000000000e-002 1.320000000000e+000 0.000000000000e+000
          0.000000000000e+000 1.360000000000e+000 0.000000000000e+000
          2.000000000000e-002 1.360000000000e+000 0.000000000000e+000
          0.000000000000e+000 1.400000000000e+000 0.000000000000e+000
          2.000000000000e-002 1.400000000000e+000 0.000000000000e+000
          0.000000000000e+000 1.440000000000e+000 0.000000000000e+000
          2.000000000000e-002 1.440000000000e+000 0.000000000000e+000
          0.000000000000e+000 1.480000000000e+000 0.000000000000e+000
          2.000000000000e-002 1.480000000000e+000 0.000000000000e+000
          0.000000000000e+000 1.520000000000e+000 0.000000000000e+000
          2.000000000000e-002 1.520000000000e+000 0.000000000000e+000
          0.000000000000e+000 1.560000000000e+000 0.000000000000e+000
          2.000000000000e-002 1.560000000000e+000 0.000000000000e+000
          0.000000000000e+000 1.600000000000e+000 0.000000000000e+000
          2.000000000000e-002 1.600000000000e+000 0.000000000000e+000
          0.000000000000e+000 1.640000000000e+000 0.000000000000e+000
          2.000000000000e-002 1.640000000000e+000 0.000000000000e+000
          0.000000000000e+000 1.680000000000e+000 0.000000000000e+000
          2.000000000000e-002 1.680000000000e+000 0.000000000000e+000
          0.000000000000e+000 1.720000000000e+000 0.000000000000e+000
          2.000000000000e-002 1.720000000000e+000 0.000000000000e+000
          0.000000000000e+000 1.760000000000e+000 0.000000000000e+000
          2.000000000000e-002 1.760000000000e+000 0.000000000000e+000
          0.000000000000e+000 1.800000000000e+000 0.000000000000e+000
          2.000000000000e-002 1.800000000000e+000 0.000000000000e+000
          0.000000000000e+000 1.840000000000e+000 0.000000000000e+000
          2.000000000000e-002 1.840000000000e+000 0.000000000000e+000
          0.000000000000e+000 1.880000000000e+000 0.000000000000e+000
          2.000000000000e-002 1.880000000000e+000 0.000000000000e+000
          0.000000000000e+000 1.920000000000e+000 0.000000000000e+000
          2.000000000000e-002 1.920000000000e+000 0.000000000000e+000
          0.000000000000e+000 1.960000000000e+000 0.000000000000e+000
          2.000000000000e-002 1.960000000000e+000 0.000000000000e+000
          0.000000000000e+000 2.000000000000e+000 0.000000000000e+000
          2.000000000000e-002 2.000000000000e+000 0.000000000000e+000
          4.000000000000e-002 4.000000000000e-002 0.000000000000e+000
          4.000000000000e-002 0.000000000000e+000 0.000000000000e+000
          4.000000000000e-002 8.000000000000e-002 0.000000000000e+000
          4.000000000000e-002 1.200000000000e-001 0.000000000000e+000
          4.000000000000e-002 1.600000000000e-001 0.000000000000e+000
          4.000000000000e-002 2.000000000000e-001 0.000000000000e+000
          4.000000000000e-002 2.400000000000e-001 0.000000000000e+000
          4.000000000000e-002 2.800000000000e-001 0.000000000000e+000
          4.000000000000e-002 3.200000000000e-001 0.000000000000e+000
          4.000000000000e-002 3.600000000000e-001 0.000000000000e+000
          4.000000000000e-002 4.000000000000e-001 0.000000000000e+000
          4.000000000000e-002 4.400000000000e-001 0.000000000000e+000
          4.000000000000e-002 4.800000000000e-001 0.000000000000e+000
          4.000000000000e-002 5.200000000000e-001 0.000000000000e+000
          4.000000000000e-002 5.600000000000e-001 0.000000000000e+000
          4.000000000000e-002 6.000000000000e-001 0.000000000000e+000
          4.000000000000e-002 6.400000000000e-001 0.000000000000e+000
          4.000000000000e-002 6.800000000000e-001 0.000000000000e+000
          4.000000000000e-002 7.200000000000e-001 0.000000000000e+000
          4.000000000000e-002 7.600000000000e-001 0.000000000000e+000
          4.000000000000e-002 8.000000000000e-001 0.000000000000e+000
          4.000000000000e-002 8.400000000000e-001 0.000000000000e+000
          4.000000000000e-002 8.800000000000e-001 0.000000000000e+000
          4.000000000000e-002 9.200000000000e-001 0.000000000000e+000
          4.000000000000e-002 9.600000000000e-001 0.000000000000e+000
          4.000000000000e-002 1.000000000000e+000 0.000000000000e+000
          4.000000000000e-002 1.040000000000e+000 0.000000000000e+000
          4.000000000000e-002 1.080000000000e+000 0.000000000000e+000
          4.000000000000e-002 1.120000000000e+000 0.000000000000e+000
          4.000000000000e-002 1.160000000000e+000 0.000000000000e+000
          4.000000000000e-002 1.200000000000e+000 0.000000000000e+000
          4.000000000000e-002 1.240000000000e+000 0.000000000000e+000
          4.000000000000e-002 1.280000000000e+000 0.000000000000e+000
          4.000000000000e-002 1.320000000000e+000 0.000000000000e+000
          4.000000000000e-002 1.360000000000e+000 0.000000000000e+000
          4.000000000000e-002 1.400000000000e+000 0.000000000000e+000
          4.000000000000e-002 1.440000000000e+000 0.000000000000e+000
          4.000000000000e-002 1.480000000000e+000 0.000000000000e+000
          4.000000000000e-002 1.520000000000e+000 0.000000000000e+000
          4.000000000000e-002 1.560000000000e+000 0.000000000000e+000
          4.000000000000e-002 1.600000000000e+000 0.000000000000e+000
          4.000000000000e-002 1.640000000000e+000 0.000000000000e+000
          4.000000000000e-002 1.680000000000e+000 0.000000000000e+000
          4.000000000000e-002 1.720000000000e+000 0.000000000000e+000
          4.000000000000e-002 1.760000000000e+000 0.000000000000e+000
          4.000000000000e-002 1.800000000000e+000 0.000000000000e+000
          4.000000000000e-002 1.840000000000e+000 0.000000000000e+000
          4.000000000000e-002 1.880000000000e+000 0.000000000000e+000
          4.000000000000e-002 1.920000000000e+000 0.000000000000e+000
          4.000000000000e-002 1.960000000000e+000 0.000000000000e+000
          4.000000000000e-002 2.000000000000e+000 0.000000000000e+000
        </DataArray>
      </Points>
      <Cells>
        <DataArray type="Int32" Name="connectivity" format="ascii">
          0 3 2 1 
          1 2 5 4 
          4 5 7 6 
          6 7 9 8 
          8 9 11 10 
          10 11 13 12 
          12 13 15 14 
          14 15 17 16 
          16 17 19 18 
          18 19 21 20 
          20 21 23 22 
          22 23 25 24 
          24 25 27 26 
          26 27 29 28 
          28 29 31 30 
          30 31 33 32 
          32 33 35 34 
          34 35 37 36 
          36 37 39 38 
          38 39 41 40 
          40 41 43 42 
          42 43 45 44 
          44 45 47 46 
          46 47 49 48 
          48 49 51 50 
          50 51 53 52 
          52 53 55 54 
          54 55 57 56 
          56 57 59 58 
          58 59 61 60 
          60 61 63 62 
          62 63 65 64 
          64 65 67 66 
          66 67 69 68 
          68 69 71 70 
          70 71 73 72 
          72 73 75 74 
          74 75 77 76 
          76 77 79 78 
          78 79 81 80 
          80 81 83 82 
          82 83 85 84 
          84 85 87 86 
          86 87 89 88 
          88 89 91 90 
          90 91 93 92 
          92 93 95 94 
          94 95 97 96 
          96 97 99 98 
          98 99 101 100 
          3 103 102 2 
          2 102 104 5 
          5 104 105 7 
          7 105 106 9 
          9 106 107 11 
          11 107 108 13 
          13 108 109 15 
          15 109 110 17 
          17 110 111 19 
          19 111 112 21 
          21 112 113 23 
          23 113 114 25 
          25 114 115 27 
          27 115 116 29 
          29 116 117 31 
          31 117 118 33 
          33 118 119 35 
          35 119 120 37 
          37 120 121 39 
          39 121 122 41 
          41 122 123 43 
          43 123 124 45 
          45 124 125 47 
          47 125 126 49 
          49 126 127 51 
          51 127 128 53 
          53 128 129 55 
          55 129 130 57 
          57 130 131 59 
          59 131 132 61 
          61 132 133 63 
          63 133 134 65 
          65 134 135 67 
          67 135 136 69 
          69 136 137 71 
          71 137 138 73 
          73 138 139 75 
          75 139 140 77 
          77 140 141 79 
          79 141 142 81 
          81 142 143 83 
          83 143 144 85 
          85 144 145 87 
          87 145 146 89 
          89 146 147 91 
          91 147 148 93 
          93 148 149 95 
          95 149 150 97 
          97 150 151 99 
          99 151 152 101 
        </DataArray>
        <DataArray type="Int32" Name="offsets" format="ascii">
          4 8 12 16 20 24 28 32 36 40 44 48 52 56 60 64 68 72 76 80 84 88 92 96 100 104 108 112 116 120 124 128 132 136 140 144 148 152 156 160 164 168 172 176 180 184 188 192 196 200 204 208 212 216 220 224 228 232 236 240 244 248 252 256 260 264 268 272 276 280 284 288 292 296 300 304 308 312 316 320 324 328 332 336 340 344 348 352 356 360 364 368 372 376 380 384 388 392 396 400 
        </DataArray>
        <DataArray type="UInt8" Name="types" format="ascii">
          9 9 9 9 9 9 9 9 9 9 9 9 9 9 9 9 9 9 9 9 9 9 9 9 9 9 9 9 9 9 9 9 9 9 9 9 9 9 9 9 9 9 9 9 9 9 9 9 9 9 9 9 9 9 9 9 9 9 9 9 9 9 9 9 9 9 9 9 9 9 9 9 9 9 9 9 9 9 9 9 9 9 9 9 9 9 9 9 9 9 9 9 9 9 9 9 9 9 9 9 
        </DataArray>
      </Cells>
      <PointData Scalars="PRESSURE1">
        <DataArray type="Float64" Name="PRESSURE1" format="ascii">
          -2.150000000000e+004 -2.150000000000e+004 -2.150000000000e+004 -2.150000000000e+004 -2.150000000000e+004 -2.150000000000e+004 -2.150000000000e+004 -2.150000000000e+004 -2.150000000000e+004 -2.150000000000e+004 -2.150000000000e+004 -2.150000000000e+004 -2.150000000000e+004 -2.150000000000e+004 -2.150000000000e+004 -2.150000000000e+004 -2.150000000000e+004 -2.150000000000e+004 -2.150000000000e+004 -2.150000000000e+004 -2.150000000000e+004 -2.150000000000e+004 -2.150000000000e+004 -2.150000000000e+004 -2.150000000000e+004 -2.150000000000e+004 -2.150000000000e+004 -2.150000000000e+004 -2.150000000000e+004 -2.150000000000e+004 -2.150000000000e+004 -2.150000000000e+004 -2.150000000000e+004 -2.150000000000e+004 -2.150000000000e+004 -2.150000000000e+004 -2.150000000000e+004 -2.150000000000e+004 -2.150000000000e+004 -2.150000000000e+004 -2.150000000000e+004 -2.150000000000e+004 -2.150000000000e+004 -2.150000000000e+004 -2.150000000000e+004 -2.150000000000e+004 -2.150000000000e+004 -2.150000000000e+004 -2.150000000000e+004 -2.150000000000e+004 -2.150000000000e+004 -2.150000000000e+004 -2.150000000000e+004 -2.150000000000e+004 -2.150000000000e+004 -2.150000000000e+004 -2.150000000000e+004 -2.150000000000e+004 -2.150000000000e+004 -2.150000000000e+004 -2.150000000000e+004 -2.150000000000e+004 -2.150000000000e+004 -2.150000000000e+004 -2.150000000000e+004 -2.150000000000e+004 -2.150000000000e+004 -2.150000000000e+004 -2.150000000000e+004 -2.150000000000e+004 -2.150000000000e+004 -2.150000000000e+004 -2.150000000000e+004 -2.150000000000e+004 -2.150000000000e+004 -2.150000000000e+004 -2.150000000000e+004 -2.150000000000e+004 -2.150000000000e+004 -2.150000000000e+004 -2.150000000000e+004 -2.150000000000e+004 -2.150000000000e+004 -2.150000000000e+004 -2.150000000000e+004 -2.150000000000e+004 -2.150000000000e+004 -2.150000000000e+004 -2.150000000000e+004 -2.150000000000e+004 -2.149999999996e+004 -2.149999999995e+004 -2.149999995709e+004 -2.149999995709e+004 -2.149996604282e+004 -2.149996604282e+004 -2.147887686468e+004 -2.147887686468e+004 -1.476676273439e+004 -1.476676273439e+004 0.000000000000e+000 0.000000000000e+000 -2.150000000001e+004 -2.150000000000e+004 -2.150000000000e+004 -2.150000000000e+004 -2.150000000000e+004 -2.150000000000e+004 -2.150000000000e+004 -2.150000000000e+004 -2.150000000000e+004 -2.150000000000e+004 -2.150000000000e+004 -2.150000000000e+004 -2.150000000000e+004 -2.150000000000e+004 -2.150000000000e+004 -2.150000000000e+004 -2.150000000000e+004 -2.150000000000e+004 -2.150000000000e+004 -2.150000000000e+004 -2.150000000000e+004 -2.150000000000e+004 -2.150000000000e+004 -2.150000000000e+004 -2.150000000000e+004 -2.150000000000e+004 -2.150000000000e+004 -2.150000000000e+004 -2.150000000000e+004 -2.150000000000e+004 -2.150000000000e+004 -2.150000000000e+004 -2.150000000000e+004 -2.150000000000e+004 -2.150000000000e+004 -2.150000000000e+004 -2.150000000000e+004 -2.150000000000e+004 -2.150000000000e+004 -2.150000000000e+004 -2.150000000000e+004 -2.150000000000e+004 -2.150000000000e+004 -2.150000000000e+004 -2.150000000000e+004 -2.149999999996e+004 -2.149999995709e+004 -2.149996604282e+004 -2.147887686468e+004 -1.476676273439e+004 0.000000000000e+000 
        </DataArray>
      </PointData>
      <CellData>
        <DataArray type="Int32" Name="MatGroup" format="ascii">
          0 0 0 0 0 0 0 0 0 0 0 0 0 0 0 0 0 0 0 0 0 0 0 0 0 0 0 0 0 0 0 0 0 0 0 0 0 0 0 0 0 0 0 0 0 0 0 0 0 0 0 0 0 0 0 0 0 0 0 0 0 0 0 0 0 0 0 0 0 0 0 0 0 0 0 0 0 0 0 0 0 0 0 0 0 0 0 0 0 0 0 0 0 0 0 0 0 0 0 0 
        </DataArray>
      </CellData>
    </Piece>
  </UnstructuredGrid>
</VTKFile>
