<?xml version="1.0"?>
<VTKFile type="UnstructuredGrid" version="0.1" byte_order="LittleEndian" header_type="UInt32">
  <UnstructuredGrid>
    <FieldData>
      <DataArray type="Int8" Name="IntegrationPointMetaData" NumberOfTuples="237" format="ascii" RangeMin="34" RangeMax="125">
        123 34 105 110 116 101
        103 114 97 116 105 111
        110 95 112 111 105 110
        116 95 97 114 114 97
        121 115 34 58 91 123
        34 105 110 116 101 103
        114 97 116 105 111 110
        95 111 114 100 101 114
        34 58 50 44 34 110
        97 109 101 34 58 34
        115 105 103 109 97 95
        105 112 34 44 34 110
        117 109 98 101 114 95
        111 102 95 99 111 109
        112 111 110 101 110 116
        115 34 58 54 125 44
        123 34 105 110 116 101
        103 114 97 116 105 111
        110 95 111 114 100 101
        114 34 58 50 44 34
        110 97 109 101 34 58
        34 101 112 115 105 108
        111 110 95 105 112 34
        44 34 110 117 109 98
        101 114 95 111 102 95
        99 111 109 112 111 110
        101 110 116 115 34 58
        54 125 44 123 34 105
        110 116 101 103 114 97
        116 105 111 110 95 111
        114 100 101 114 34 58
        50 44 34 110 97 109
        101 34 58 34 101 112
        115 105 108 111 110 95
        109 95 105 112 34 44
        34 110 117 109 98 101
        114 95 111 102 95 99
        111 109 112 111 110 101
        110 116 115 34 58 54
        125 93 125
      </DataArray>
      <DataArray type="Int8" Name="OGS_VERSION" NumberOfTuples="40" format="ascii" RangeMin="45" RangeMax="121">
        54 46 50 46 48 45
        49 53 45 103 53 51
        56 49 101 101 99 99
        100 46 100 105 114 116
        121 46 50 48 49 57
        48 52 48 49 49 53
        48 52 49 50
      </DataArray>
      <DataArray type="Float64" Name="epsilon_ip" NumberOfComponents="6" NumberOfTuples="7776" format="ascii" RangeMin="5.0320925564e-05" RangeMax="9.9677895226e-05">
        -2.3742581651e-12 -6.0819182011e-19 -9.5122613011e-05 -1.3687974417e-16 9.1215610385e-16 1.1290611422e-09
        1.3931247146e-12 3.7870839835e-18 -9.725305977e-05 -1.3884236818e-16 5.2252011779e-16 -2.2193253382e-09
        5.8483668583e-12 6.97941968e-18 -9.9383506529e-05 -1.4266021586e-16 1.184527187e-16 -1.1441941013e-09
        -2.3783796966e-12 7.2825472592e-19 -9.5122613009e-05 2.6172598438e-18 -1.5269558538e-17 1.1290611574e-09
        1.3889100962e-12 1.3952131039e-18 -9.7253059768e-05 2.1708451987e-19 -4.6477956693e-19 -2.2193251983e-09
        5.8438495234e-12 8.5923137459e-19 -9.9383506527e-05 1.0156246281e-18 -9.2574087389e-20 -1.144194018e-09
        -2.3738132575e-12 2.0647012719e-18 -9.5122613011e-05 1.3953682654e-16 -9.3422703155e-16 1.1290611603e-09
        1.3934133204e-12 -9.9665777581e-19 -9.725305977e-05 1.3764716907e-16 -5.1498092604e-16 -2.2193250664e-09
        5.848079903e-12 -5.2609569308e-18 -9.9383506529e-05 1.4401016614e-16 -1.101700144e-16 -1.1441939381e-09
        1.6502158518e-12 -1.0533389097e-19 -9.5278784351e-05 -6.0421919612e-16 8.8489597368e-16 1.1928954364e-10
        -1.8768336191e-12 3.7593620839e-18 -9.7342099551e-05 -6.1565313581e-16 5.190506671e-16 8.5683082205e-12
        -4.6701245881e-12 7.6226012709e-18 -9.9405414752e-05 -6.4026918639e-16 1.1958191293e-16 -1.1828693337e-11
        1.6461955221e-12 3.8006410348e-19 -9.527878435e-05 1.8803866771e-17 -1.1647340011e-17 1.1928952452e-10
        -1.8810546611e-12 8.4859356772e-19 -9.734209955e-05 8.1433846441e-18 1.1619189702e-17 8.5684963221e-12
        -4.67476996e-12 1.3156662441e-18 -9.940541475e-05 -1.0292985798e-17 1.2702078177e-18 -1.1828491105e-11
        1.6508608582e-12 8.6546209793e-19 -9.5278784352e-05 6.3917634482e-16 -9.0022172053e-16 1.1928948493e-10
        -1.8765591592e-12 -2.0621749484e-18 -9.7342099552e-05 6.3026931771e-16 -4.8783706563e-16 8.5686685074e-12
        -4.6706679102e-12 -4.9912687827e-18 -9.9405414751e-05 6.1899262486e-16 -1.0906956942e-16 -1.1828300168e-11
        6.255248091e-12 5.1411680665e-19 -9.5440874368e-05 -1.0661428137e-15 8.541279856e-16 -1.3261419442e-09
        -4.8217076701e-12 3.8316207809e-18 -9.7432378826e-05 -1.0934433724e-15 5.1356165635e-16 2.186768515e-09
        -1.5115806437e-11 8.3491512867e-18 -9.9423883285e-05 -1.145245784e-15 1.2020271708e-16 1.1547788162e-09
        6.2513384122e-12 1.4846624952e-19 -9.5440874366e-05 4.0433165803e-17 -1.1365836923e-17 -1.3261419679e-09
        -4.8259291817e-12 4.0195462829e-19 -9.7432378824e-05 1.5089500314e-17 2.1683524049e-17 2.1867687863e-09
        -1.5120578362e-11 1.8554695385e-18 -9.9423883282e-05 -2.8972957188e-17 1.9267987974e-18 1.1547791768e-09
        6.2561119337e-12 -2.171843076e-19 -9.5440874369e-05 1.1442803144e-15 -8.6941450171e-16 -1.3261420207e-09
        -4.8214355387e-12 -3.0277115244e-18 -9.7432378826e-05 1.1219076934e-15 -4.6275094787e-16 2.1867690332e-09
        -1.5116603179e-11 -4.6382122097e-18 -9.9423883284e-05 1.0865993411e-15 -1.0890486016e-16 1.1547795177e-09
        9.8758481664e-13 -5.759006148e-18 -8.9618764119e-05 -1.5828796642e-16 1.8892541466e-15 8.0123196145e-10
        2.0687499557e-13 -6.6689855701e-18 -9.1749255949e-05 -1.5410721594e-16 1.516040871e-15 -1.0172194524e-09
        -2.1530289463e-12 -3.7038654049e-18 -9.387974778e-05 -1.4179476133e-16 1.1350074996e-15 1.5908470566e-09
        9.8275311073e-13 -1.6462009894e-18 -8.9618764117e-05 -6.375205926e-18 1.3333139223e-17 8.0123201869e-10
        2.0190888153e-13 -3.2944794237e-18 -9.1749255948e-05 -2.1683482163e-18 5.9744538404e-19 -1.017219518e-09
        -2.1574653259e-12 -1.0676582708e-18 -9.3879747778e-05 1.9044994212e-18 -1.995108217e-17 1.5908469456e-09
        9.8754143413e-13 2.4666041692e-18 -8.9618764119e-05 1.5282123408e-16 -1.8609289465e-15 8.0123219045e-10
        2.0615678026e-13 8.0026722634e-20 -9.1749255949e-05 1.5213543782e-16 -1.5131632506e-15 -1.0172195006e-09
        -2.1530937093e-12 1.5685488633e-18 -9.387974778e-05 1.4304991728e-16 -1.1732401859e-15 1.5908468866e-09
        -1.1923473754e-12 -7.9159754942e-18 -8.9954999177e-05 -6.9692064736e-16 1.8281918593e-15 1.9720135937e-10
        1.7905861566e-12 -6.1503934425e-18 -9.2018355895e-05 -6.8463964011e-16 1.4590317041e-15 -1.1802406957e-11
        3.0889421227e-12 -2.5990596709e-18 -9.4081712614e-05 -6.2818983521e-16 1.0912371384e-15 -1.2802310656e-10
        -1.1971541206e-12 -2.3017889012e-18 -8.9954999175e-05 -1.5312572409e-17 1.3059347522e-17 1.9720157394e-10
        1.7856205152e-12 -2.3435106599e-18 -9.2018355894e-05 -2.2862053163e-17 -6.4877477693e-18 -1.1802531135e-11
        3.0845260474e-12 -5.9948069882e-19 -9.4081712612e-05 4.8965065612e-18 -2.4711179604e-17 -1.2802348652e-10
        -1.1922742035e-12 3.3123976919e-18 -8.9954999177e-05 6.7438641879e-16 -1.7978152803e-15 1.9720201378e-10
        1.789921845e-12 1.4633721226e-18 -9.2018355895e-05 6.4192202697e-16 -1.4677786639e-15 -1.1802462309e-11
        3.0889572523e-12 1.4000982732e-18 -9.4081712614e-05 6.3590491844e-16 -1.1364076031e-15 -1.280237057e-10
        -3.9864751579e-12 -1.0393879242e-17 -9.0295628785e-05 -1.2379039769e-15 1.7701231627e-15 -1.098960428e-09
        2.9003722056e-12 -5.7596487277e-18 -9.2287170612e-05 -1.2133249761e-15 1.4019596482e-15 1.0283202653e-09
        7.9899126066e-12 -1.4290143605e-18 -9.4278712439e-05 -1.1085521543e-15 1.0442381015e-15 -1.3874419811e-09
        -3.9912650764e-12 -3.2783112149e-18 -9.0295628783e-05 -2.6906758139e-17 1.4852582089e-17 -1.0989600625e-09
        2.8953945896e-12 -1.520389309e-18 -9.228717061e-05 -4.1871688935e-17 -1.4314731507e-17 1.0283200621e-09
        7.9855031647e-12 -6.6063550539e-20 -9.4278712437e-05 1.3859922664e-17 -3.3028098504e-17 -1.3874426641e-09
        -3.9862970551e-12 3.8372568125e-18 -9.0295628784e-05 1.1930448835e-15 -1.7334492997e-15 -1.0989593531e-09
        2.8997405948e-12 2.7188701097e-18 -9.2287170611e-05 1.1332743885e-15 -1.4235958558e-15 1.0283201695e-09
        7.9899830254e-12 1.2968872595e-18 -9.4278712439e-05 1.1347031571e-15 -1.1033064336e-15 -1.38744307e-09
        3.6150302351e-13 2.1398275429e-18 -8.4115205863e-05 -1.3740369863e-16 2.7349306758e-15 7.5643649191e-10
        -1.4776143414e-12 5.7138500598e-19 -8.6245714581e-05 -1.4279203879e-16 2.4152797265e-15 -1.3024461494e-09
        -2.2648400402e-13 -3.2372451845e-18 -8.83762233e-05 -1.5343386525e-16 2.092349416e-15 1.0729573903e-09
        3.5716952762e-13 5.8068997948e-19 -8.4115205861e-05 2.2104001391e-18 -1.0287590253e-17 7.5643650172e-10
        -1.4819281321e-12 1.5817794811e-18 -8.624571458e-05 3.907425357e-18 3.6849952133e-18 -1.3024463223e-09
        -2.3104061915e-13 3.4268132916e-19 -8.8376223299e-05 -3.3889896356e-18 1.4353662785e-17 1.0729573578e-09
        3.6132616545e-13 -9.7844758397e-19 -8.4115205863e-05 1.3684244722e-16 -2.7613257829e-15 7.5643649809e-10
        -1.4772267385e-12 2.5921739561e-18 -8.6245714582e-05 1.5051033797e-16 -2.4137533209e-15 -1.302446451e-09
        -2.2605699944e-13 3.9226078428e-18 -8.83762233e-05 1.5144483461e-16 -2.069481333e-15 1.0729574258e-09
        9.678739908e-13 3.1067707498e-18 -8.463058282e-05 -6.1340186393e-16 2.6588907022e-15 3.159996057e-10
        -2.7933684163e-12 1.0587304117e-19 -8.669396913e-05 -6.3418999299e-16 2.3249136415e-15 -1.5273099308e-12
        -3.2581581288e-12 -5.8203443742e-18 -8.875735544e-05 -6.7461208133e-16 2.0237460653e-15 -2.1737091254e-10
        9.6352274371e-13 1.0646189299e-18 -8.4630582818e-05 1.7347161881e-18 -2.4101455893e-18 3.1599967433e-10
        -2.7976717071e-12 1.6352068674e-18 -8.6693969129e-05 1.6332373881e-17 -5.3569438745e-18 -1.5274209412e-12
        -3.262693511e-12 -7.1952490195e-19 -8.8757355439e-05 7.3263376754e-18 2.4439259599e-17 -2.1737085875e-10
        9.6752980663e-13 -9.7753288994e-19 -8.4630582819e-05 6.1066264889e-16 -2.6721243421e-15 3.1599957825e-10
        -2.7930739552e-12 3.1645406936e-18 -8.669396913e-05 6.6569612331e-16 -2.34405106e-15 -1.5276376004e-12
[...]
      <PointData>
        <DataArray type="Float64" Name="displacement" NumberOfComponents="3" format="ascii" RangeMin="0" RangeMax="0.0022500921348">
          4.7886007219e-12 5.3929493612e-18 -0.00029779152011 0 5.4951126042e-18 -0.00032409089353
          0 0 -0.00032409089353 4.7871416026e-12 0 -0.00029779152011
          -8.9311217594e-12 4.2971740809e-17 0 0 3.4522198411e-18 0
          0 0 0 -8.9292602499e-12 0 0
          -3.3691879153e-12 -6.6616419951e-17 -0.00058001842343 0 -7.3774359708e-19 -0.00062966117046
          0 0 -0.00062966117046 -3.3696103724e-12 0 -0.00058001842343
          1.9674908258e-12 2.2480632658e-17 -0.00084668557298 0 -2.7193095216e-18 -0.00091671183695
          0 0 -0.00091671183695 1.9681977847e-12 0 -0.00084668557298
          6.8793497545e-12 1.5722871512e-17 -0.0010977885998 0 1.2145122851e-17 -0.0011852404628
          0 0 -0.0011852404628 6.8792053762e-12 0 -0.0010977885998
          1.3130576974e-12 -1.8543857747e-18 -0.0013333353044 0 -2.408323184e-18 -0.0014352567229
          0 0 -0.0014352567229 1.313155837e-12 0 -0.0013333353044
          9.5760438246e-12 -2.9851093513e-18 -0.0015533124312 0 -2.8950541797e-18 -0.001666745028
          0 0 -0.001666745028 9.576044295e-12 0 -0.0015533124312
          4.7886292591e-12 0 -0.00029779152011 0 0 -0.00032409089353
          -8.9311405945e-12 0 0 0 0 0
          -3.3692237214e-12 0 -0.00058001842343 0 0 -0.00062966117046
          1.9675191718e-12 0 -0.00084668557298 0 0 -0.00091671183695
          6.8793413665e-12 0 -0.0010977885998 0 0 -0.0011852404628
          1.3130556192e-12 0 -0.0013333353044 0 0 -0.0014352567229
          9.5760410201e-12 0 -0.0015533124312 0 0 -0.001666745028
          5.4573082233e-13 2.2840598536e-16 -0.00027136260549 5.4147840954e-13 0 -0.0002713626055
          -1.417642308e-11 -1.8760879983e-16 0 -1.4183512451e-11 0 0
          -4.8810850403e-12 -2.220525972e-16 -0.00052986222524 -4.8637904439e-12 0 -0.00052986222523
          -4.4913621118e-12 1.246232553e-16 -0.0007755010401 -4.5000702921e-12 0 -0.00077550104009
          1.0907036415e-11 -8.6872699472e-18 -0.0010082790678 1.0907536726e-11 0 -0.0010082790678
          3.2871378778e-12 5.5795043026e-18 -0.0012281985747 3.2870370899e-12 0 -0.0012281985747
          -2.4256308351e-12 -3.4533356459e-18 -0.0014352566542 -2.4255594778e-12 0 -0.0014352566542
          5.4570196742e-13 0 -0.00027136260549 -1.4176409773e-11 0 0
          -4.881050362e-12 0 -0.00052986222524 -4.4913685521e-12 0 -0.0007755010401
          1.0907045079e-11 0 -0.0010082790678 3.2871282496e-12 0 -0.0012281985747
          -2.4256367085e-12 0 -0.0014352566542 1.9875059459e-11 -5.4364915961e-17 -0.00024480501681
          1.9913193329e-11 0 -0.00024480501673 2.6606351378e-11 1.4147437728e-17 0
          2.6607573987e-11 0 0 -5.1945659732e-12 -1.5377539972e-16 -0.00047919060954
          -5.2676416886e-12 0 -0.00047919060956 -1.0703537058e-11 1.7498951625e-16 -0.0007031598108
          -1.0667685435e-11 0 -0.00070315981085 -8.8187555975e-12 -4.2192529175e-17 -0.00091671174355
          -8.8232491003e-12 0 -0.00091671174355 4.5446884472e-11 -1.0549284057e-17 -0.0011198464366
          4.5447650262e-11 0 -0.0011198464366 -5.9050902139e-12 1.1284699287e-18 -0.0013125636535
          -5.9052217704e-12 0 -0.0013125636535 1.9875009452e-11 0 -0.00024480501681
          2.6606337361e-11 0 0 -5.1944917964e-12 0 -0.00047919060954
          -1.0703515214e-11 0 -0.0007031598108 -8.8187703942e-12 0 -0.00091671174355
          4.5446879573e-11 0 -0.0011198464366 -5.9051032879e-12 0 -0.0013125636535
          -2.5501236205e-11 2.2238636736e-16 -0.00021811907471 -2.5575925452e-11 0 -0.00021811907474
          -2.0764505991e-10 -2.4648263453e-16 0 -2.0763427823e-10 0 0
          2.5134559015e-11 2.1682699794e-16 -0.00042800490836 2.5260608151e-11 0 -0.00042800583429
          4.0385739918e-11 -1.8862952414e-16 -0.00062966144554 4.0324763927e-11 0 -0.00062966144557
          2.7633218094e-11 -3.5545149317e-17 -0.00082308623157 2.76368183e-11 0 -0.00082308623156
          5.2209153321e-11 1.5905703908e-16 -0.0010082792841 5.2210558081e-11 0 -0.0010082792841
          1.8520892155e-11 -5.5263468332e-17 -0.0011852404884 1.852075407e-11 0 -0.0011852404884
          -2.5501195659e-11 0 -0.00021811907471 -2.0764500169e-10 0 0
          2.5134406371e-11 0 -0.00042800490836 4.0385820189e-11 0 -0.00062966144554
          2.7633311689e-11 0 -0.00082308623158 5.2209105955e-11 0 -0.0010082792841
          1.8520865432e-11 0 -0.0011852404884 -1.2143573559e-10 1.593646013e-16 -0.00019130322899
          -1.2137579813e-10 0 -0.00019130322901 8.0252132789e-10 5.3176838428e-17 0
          8.0252587454e-10 0 0 -2.2527123866e-10 -4.4376584201e-16 -0.00037630428678
          -2.2538709323e-10 0 -0.0003763042868 -2.2480723683e-10 -2.5874457632e-17 -0.00055500342265
          -2.2474822836e-10 0 -0.0005550034226 -2.0725759764e-10 5.753763153e-16 -0.00072740156318
          -2.0726153689e-10 0 -0.00072740156318 -2.8866892517e-10 -1.2946016268e-16 -0.00089349735601
          -2.8867111735e-10 0 -0.00089349735601 9.4740897072e-11 -3.9221015271e-17 -0.0010532949698
          9.4742639379e-11 0 -0.0010532949698 -1.2143568446e-10 0 -0.00019130322899
          8.0252129226e-10 0 0 -2.2527134877e-10 0 -0.00037630428678
          -2.2480713413e-10 0 -0.00055500342265 -2.0725750777e-10 0 -0.00072740156318
          -2.8866894098e-10 0 -0.00089349735601 9.4740836333e-11 0 -0.0010532949698
          1.1354000757e-09 -4.0915047088e-15 -0.00016436493293 1.1353332958e-09 0 -0.00016436493301
          -1.8374815025e-09 2.5966295358e-15 0 -1.8374814144e-09 0 0
          1.0400978181e-09 5.5050391194e-15 -0.00032409372471 1.0402609662e-09 0 -0.00032409372472
          1.2643588748e-09 -5.8520213649e-15 -0.00047919397033 1.2642556964e-09 0 -0.00047919397026
          1.2380923221e-09 2.1028912943e-15 -0.0006296643589 1.2380605609e-09 0 -0.00062966435887
          1.1563088906e-09 5.8388910317e-16 -0.00077550400804 1.1563214239e-09 0 -0.00077550400804
          1.1355951923e-09 -2.0871180321e-16 -0.00091671351612 1.1355991548e-09 0 -0.00091671351612
          1.1354000891e-09 0 -0.00016436493293 -1.8374812871e-09 0 0
          1.0400974838e-09 0 -0.00032409372471 1.2643589413e-09 0 -0.00047919397033
          1.2380927624e-09 0 -0.00062966435891 1.1563088325e-09 0 -0.00077550400804
          1.135595038e-09 0 -0.00091671351612 -7.7778639929e-12 -2.9282373267e-18 -0.0016852015519
          0 -2.0941507672e-18 -0.0017755473826 0 0 -0.0017755473826
          -7.7778637696e-12 0 -0.0016852015519 -7.0774703774e-12 -2.1669098469e-18 -0.0018107817254
          0 -1.3396128656e-18 -0.0018797131654 0 0 -0.0018797131654
          -7.0774729551e-12 0 -0.0018107817254 -4.6158645704e-12 -8.9806154409e-19 -0.0019300658874
          0 -4.9793645759e-19 -0.0019792548789 0 0 -0.0019792548789
          -4.6158685749e-12 0 -0.0019300658874 -3.4348473521e-13 -2.5735953853e-19 -0.0020430416906
          0 -7.7894507852e-20 -0.0020741660843 0 0 -0.0020741660843
          -3.4348907119e-13 0 -0.0020430416906 -5.1730968819e-12 6.5700609296e-19 -0.0021497206822
          0 -4.6319140391e-19 -0.0021644414683 0 0 -0.0021644414683
          -5.1731012068e-12 0 -0.0021497206822 -2.6686303472e-11 1.8847959411e-18 -0.0022500918733
          0 -7.5771501129e-19 -0.0022500918713 0 0 -0.0022500918713
          -2.6686309734e-11 0 -0.0022500918733 -7.7778650606e-12 0 -0.0016852015519
          0 0 -0.0017755473826 -7.0774693928e-12 0 -0.0018107817254
          0 0 -0.0018797131654 -4.6158636917e-12 0 -0.0019300658874
          0 0 -0.0019792548789 -3.4348308019e-13 0 -0.0020430416906
          0 0 -0.0020741660843 -5.1730946304e-12 0 -0.0021497206822
          0 0 -0.0021644414683 -2.6686300676e-11 0 -0.0022500918733
          0 0 -0.0022500918713 -9.1382822806e-12 -5.275677187e-18 -0.0015916401175
          -9.1382759129e-12 0 -0.0015916401175 -7.4066524264e-12 -1.3324936288e-18 -0.0017397923257
          -7.4066658952e-12 0 -0.0017397923257 -4.0749347696e-12 3.3750156926e-19 -0.001879713219
          -4.074945648e-12 0 -0.001879713219 -4.0960379982e-12 6.2676052996e-19 -0.0020114084079
          -4.0960455861e-12 0 -0.0020114084079 1.1303694311e-12 1.2641540215e-18 -0.002134865939
          1.1303667815e-12 0 -0.002134865939 -3.0044067396e-12 2.6023953732e-18 -0.0022500918514
          -3.0044094267e-12 0 -0.0022500918514 -9.1382854851e-12 0 -0.0015916401175
          -7.4066510422e-12 0 -0.0017397923257 -4.0749327843e-12 0 -0.001879713219
          -4.0960360609e-12 0 -0.0020114084079 1.1303705599e-12 0 -0.002134865939
          -3.0044035595e-12 0 -0.0022500918514 -1.1402767043e-11 -4.8126426311e-18 -0.0014948632738
          -1.1402732124e-11 0 -0.0014948632738 3.7614925536e-12 1.9230443019e-19 -0.0016667451144
          3.7614439778e-12 0 -0.0016667451144 7.6323509272e-12 1.9118264451e-18 -0.0018282090513
          7.6323440246e-12 0 -0.0018282090513 1.0647519242e-11 1.6759441746e-18 -0.0019792549145
          1.0647513652e-11 0 -0.0019792549145 1.863024637e-11 1.5921633107e-18 -0.0021198825411
          1.8630248799e-11 0 -0.0021198825411 -2.9418663168e-11 1.2849012879e-18 -0.0022500917645
          -2.9418655045e-11 0 -0.0022500917645 -1.1402770185e-11 0 -0.0014948632738
          3.7614966305e-12 0 -0.0016667451144 7.6323537101e-12 0 -0.0018282090513
          1.0647519995e-11 0 -0.0019792549145 1.8630246698e-11 0 -0.0021198825411
          -2.9418664669e-11 0 -0.0022500917645 -6.8541777403e-11 -5.0878622939e-18 -0.0013948710431
          -6.8541799576e-11 0 -0.0013948710431 -4.3907498042e-11 6.5463213343e-18 -0.0015916401771
          -4.3907563366e-11 0 -0.0015916401771 -3.7668526366e-11 2.6310216818e-18 -0.0017755475221
          -3.7668534733e-11 0 -0.0017755475221 -3.696118959e-11 9.0688754803e-19 -0.001946586976
          -3.6961179281e-11 0 -0.001946586976 -4.3254761439e-11 -3.9931176703e-19 -0.0021047706147
          -4.3254757005e-11 0 -0.0021047706147 1.7361218301e-10 -1.0668184617e-18 -0.0022500921348
          1.7361218593e-10 0 -0.0022500921348 -6.8541778971e-11 0 -0.0013948710431
          -4.3907489564e-11 0 -0.0015916401771 -3.7668525976e-11 0 -0.0017755475221
          -3.6961189926e-11 0 -0.001946586976 -4.3254762439e-11 0 -0.0021047706147
          1.7361217969e-10 0 -0.0022500921348 1.4441334539e-10 -5.1158711574e-18 -0.0012916631161
          1.4441263436e-10 0 -0.0012916631161 1.542134377e-10 2.180843877e-18 -0.0015144769873
          1.5421364409e-10 0 -0.0015144769873 7.8990187538e-11 4.3867647938e-18 -0.0017217215129
          7.8990164077e-11 0 -0.0017217215129 3.0352604108e-11 -2.4640559726e-18 -0.0019134099847
          3.0352627339e-11 0 -0.0019134099847 8.8096404518e-11 -5.1285100283e-19 -0.0020895296774
          8.8096397085e-11 0 -0.0020895296774 -3.1940886627e-10 -1.4719716704e-18 -0.0022500911022
          -3.1940886466e-10 0 -0.0022500911022 1.4441336644e-10 0 -0.0012916631161
          1.5421343544e-10 0 -0.0015144769873 7.8990188002e-11 0 -0.0017217215129
          3.0352603596e-11 0 -0.0019134099847 8.8096403126e-11 0 -0.0020895296774
          -3.1940886832e-10 0 -0.0022500911022 1.4773729894e-10 2.288315794e-16 -0.001185242701
          1.477351291e-10 0 -0.001185242701 2.9965270219e-10 -4.2764011578e-17 -0.0014352585179
          2.9965324876e-10 0 -0.0014352585179 2.0087957739e-10 -1.5069231683e-18 -0.0016667469111
          2.008794933e-10 0 -0.0016667469111 8.4234573345e-11 -1.0693351332e-18 -0.0018797146884
          8.4234606394e-11 0 -0.0018797146884 1.0427295791e-10 -1.296237176e-19 -0.0020741679289
          1.042729498e-10 0 -0.0020741679289 -3.4983257211e-10 -5.2090776754e-19 -0.0022500912312
          -3.4983257136e-10 0 -0.0022500912312 1.4773740739e-10 0 -0.001185242701
          2.9965266507e-10 0 -0.0014352585179 2.0087958788e-10 0 -0.0016667469111
          8.4234573902e-11 0 -0.0018797146884 1.0427295741e-10 0 -0.0020741679289
          -3.4983257318e-10 0 -0.0022500912312 -2.4367649439e-10 -2.1237719066e-15 -0.00021812481424
          -2.4351999479e-10 0 -0.00021812481425 7.870694655e-10 8.329893571e-17 0
          7.8703367107e-10 0 0 -3.5285257484e-10 3.9934659927e-15 -0.00042801086142
          -3.5311671264e-10 0 -0.00042801178733 -3.1711988772e-10 9.8676003799e-16 -0.00062966735941
          -3.1697744889e-10 0 -0.00062966735944 -2.6579960578e-10 -2.3697398563e-15 -0.0008230921045
          -2.6579936292e-10 0 -0.0008230921045 -6.0927588552e-10 2.849623796e-16 -0.0010082850586
          -6.0928418115e-10 0 -0.0010082850586 -2.4367649283e-10 0 -0.00021812481424
          7.8706894592e-10 0 0 -3.5285186783e-10 0 -0.00042801086142
          -3.1712008519e-10 0 -0.0006296673594 -2.6580002453e-10 0 -0.0008230921045
          -6.0927587459e-10 0 -0.0010082850586 -1.102360856e-11 3.2519991521e-15 -0.00027136828255
          -1.1116467795e-11 0 -0.00027136828243 -3.304540334e-11 -2.1284319779e-15 0
          -3.3047296238e-11 0 0 9.8149037756e-11 -4.7394263549e-15 -0.00052986736537
          9.8328045357e-11 0 -0.00052986736541 6.0418542291e-11 2.2384207833e-15 -0.00077550618723
          6.0320852275e-11 0 -0.0007755061873 1.2224004195e-10 -3.9018981132e-17 -0.0010082842087
          1.2225125118e-10 0 -0.0010082842087 -7.4063074458e-11 -1.9781799449e-16 -0.0012282040866
          -7.4061819054e-11 0 -0.0012282040866 -1.1023461661e-11 0 -0.00027136828255
          -3.3044856961e-11 0 0 9.8148280372e-11 0 -0.00052986736537
          6.0418678495e-11 0 -0.00077550618723 1.222403033e-10 0 -0.0010082842087
          -7.4063085316e-11 0 -0.0012282040866 -6.7327563814e-11 2.6512946003e-17 -0.00032409703353
          -6.7304964574e-11 0 -0.00032409703355 1.1266955567e-10 1.679383479e-17 0
          1.1268396887e-10 0 0 9.3554949198e-13 3.2536633306e-16 -0.00062966651692
          8.7892465124e-13 0 -0.00062966651691 -3.0150766501e-11 -3.4946965652e-16 -0.00091671730371
          -3.0124058616e-11 0 -0.00091671730369 3.247935576e-11 1.2592922975e-16 -0.0011852458543
          3.2478315659e-11 0 -0.0011852458543 -1.4353387258e-10 1.2607758235e-17 -0.0014352626111
          -1.4353417091e-10 0 -0.0014352626111 -6.7327724312e-11 0 -0.00032409703353
          1.1266951473e-10 0 0 9.3579363514e-13 0 -0.00062966651692
          -3.0150791262e-11 0 -0.00091671730371 3.2479292231e-11 0 -0.0011852458543
          -1.4353385377e-10 0 -0.0014352626111 6.8677662337e-11 -1.2015502121e-16 -0.00037631179709
          6.8672294595e-11 0 -0.00037631179709 2.3161396667e-10 2.5061148577e-16 0
          2.31611538e-10 0 0 -9.7523055453e-12 -8.6976684242e-17 -0.00072740736555
          -9.738444278e-12 0 -0.00072740736555 -2.7205185378e-11 5.107397408e-17 -0.0010533003051
          -2.7212049486e-11 0 -0.0010533003051 3.4659245123e-11 -8.0535597363e-18 -0.0013539833513
          3.4659508651e-11 0 -0.0013539833513 -7.0038502023e-11 3.7642765841e-18 -0.0016294522667
          -7.0038480595e-11 0 -0.0016294522667 6.86776786e-11 0 -0.00037631179709
          2.3161386433e-10 0 0 -9.752243917e-12 0 -0.00072740736555
          -2.7205226823e-11 0 -0.0010533003051 3.4659265693e-11 0 -0.0013539833513
          -7.0038505915e-11 0 -0.0016294522667 -9.2151972021e-11 2.5194828322e-17 -0.00042801351248
          -9.2151450908e-11 0 -0.00042801351249 -1.0159874417e-09 -5.3716140213e-17 0
          -1.0159869524e-09 0 0 8.9107421321e-11 2.8751542706e-17 -0.00082309203752
          8.9105257495e-11 0 -0.00082309203752 -3.807566218e-11 -1.4694576786e-17 -0.0011852467144
          -3.8074437892e-11 0 -0.0011852467144 -3.326969699e-11 3.6316723472e-19 -0.0015144833481
          -3.3269757449e-11 0 -0.0015144833481 -2.6298840104e-10 4.2759022236e-19 -0.0018107885205
          -2.6298837963e-10 0 -0.0018107885205 -9.2151950617e-11 0 -0.00042801351248
          -1.015987458e-09 0 0 8.9107382456e-11 0 -0.00082309203752
          -3.8075627121e-11 0 -0.0011852467144 -3.3269710017e-11 0 -0.0015144833481
          -2.6298839878e-10 0 -0.0018107885205 9.0160684765e-11 -6.1433436725e-18 -0.0004791925801
          9.0160691973e-11 0 -0.0004791925801 2.2944945097e-09 1.4207392224e-17 0
          2.2944944779e-09 0 0 8.1385474761e-10 -1.0529828169e-17 -0.0009167128921
          8.1385495442e-10 0 -0.0009167128921 1.0093529812e-09 6.4619147926e-18 -0.0013125649231
          1.0093528939e-09 0 -0.0013125649231 1.1334542015e-09 5.3507575498e-19 -0.0016667462666
          1.1334542169e-09 0 -0.0016667462666 1.5591279202e-09 3.9240412593e-19 -0.0019792570031
          1.5591279099e-09 0 -0.0019792570031 9.0160674815e-11 0 -0.0004791925801
          2.294494508e-09 0 0 8.1385476448e-10 0 -0.0009167128921
          1.0093529703e-09 0 -0.0013125649231 1.1334542039e-09 0 -0.0016667462666
          1.5591279194e-09 0 -0.0019792570031 -9.9432188931e-11 5.7641895518e-19 -0.0004791882253
          -9.9432187453e-11 0 -0.0004791882253 -9.5251479577e-10 -1.0354293312e-18 0
          -9.525147949e-10 0 0 -6.991723086e-11 2.6801480638e-18 -0.0009167091218
          -6.9917271883e-11 0 -0.0009167091218 -1.6107835177e-10 -1.3709431973e-18 -0.001312561134
          -1.6107834589e-10 0 -0.001312561134 -2.3005234901e-10 2.5002857799e-19 -0.0016667424915
          -2.3005233297e-10 0 -0.0016667424915 -1.2479770389e-10 -3.4496924433e-19 -0.0019792524438
          -1.2479770336e-10 0 -0.0019792524438 4.4977316641e-10 -7.3716982822e-19 -0.0022500892173
          4.4977316625e-10 0 -0.0022500892173 -9.9432188489e-11 0 -0.0004791882253
          -9.525147955e-10 0 0 -6.9917232683e-11 0 -0.0009167091218
          -1.6107834994e-10 0 -0.001312561134 -2.3005235027e-10 0 -0.0016667424915
          -1.2479770443e-10 0 -0.0019792524438 4.4977316618e-10 0 -0.0022500892173
          5.6722126604e-11 2.6286865299e-19 -0.00047918912547 5.672212785e-11 0 -0.00047918912547
          2.2686248826e-10 1.0417724014e-19 0 2.2686249014e-10 0 0
          7.4277494306e-12 -5.178885913e-19 -0.00091671022219 7.4277583392e-12 0 -0.00091671022219
          2.7782104129e-11 -9.5778817907e-20 -0.0013125620849 2.7782102855e-11 0 -0.0013125620849
          4.1173194736e-11 1.7422422358e-19 -0.0016667435571 4.1173191157e-11 0 -0.0016667435571
          -4.2245694383e-12 -1.2698424465e-19 -0.0019792533314 -4.2245702832e-12 0 -0.0019792533314
          -1.4318677967e-10 -3.3175067067e-19 -0.00225009024 -1.4318677922e-10 0 -0.00225009024
          5.67221265e-11 0 -0.00047918912547 2.2686248934e-10 0 0
          7.4277503281e-12 0 -0.00091671022219 2.7782104329e-11 0 -0.0013125620849
          4.117319474e-11 0 -0.0016667435571 -4.224569323e-12 0 -0.0019792533314
          -1.4318677959e-10 0 -0.00225009024 -2.5254075417e-11 -3.2465032734e-19 -0.0004791889281
          -2.5254074772e-11 0 -0.0004791889281 -5.6443180993e-11 2.7738418189e-19 0
          -5.6443181039e-11 0 0 -5.3158639419e-12 -6.2872512642e-20 -0.00091670995801
          -5.3158653741e-12 0 -0.00091670995801 -6.4885188704e-13 -3.8729967418e-21 -0.0013125618356
          -6.4885159952e-13 0 -0.0013125618356 1.2435475706e-12 -3.3679199926e-19 -0.0016667432997
          1.2435490661e-12 0 -0.0016667432997 8.3618989338e-12 1.3751141525e-19 -0.0019792530973
          8.3618994209e-12 0 -0.0019792530973 3.28940486e-11 -9.9076821196e-19 -0.0022500899639
          3.2894048293e-11 0 -0.0022500899639 -2.5254075137e-11 0 -0.0004791889281
          -5.6443180523e-11 0 0 -5.3158631175e-12 0 -0.00091670995801
          -6.4885161919e-13 0 -0.0013125618356 1.2435471477e-12 0 -0.0016667432997
          8.3618994401e-12 0 -0.0019792530973 3.2894049552e-11 0 -0.0022500899639
          4.0318962086e-12 -4.1843917158e-19 -0.00047918897188 4.0318965209e-12 0 -0.00047918897188
          8.8090721598e-12 6.1891562144e-19 0 8.8090729941e-12 0 0
          1.6285857933e-12 -6.9279945794e-20 -0.00091671002311 1.6285857812e-12 0 -0.00091671002311
          1.7282416023e-12 2.6648021844e-19 -0.0013125619025 1.728242039e-12 0 -0.0013125619025