<?xml version="1.0"?>
<VTKFile type="UnstructuredGrid" version="0.1" byte_order="LittleEndian" header_type="UInt32">
  <UnstructuredGrid>
    <FieldData>
      <DataArray type="Int8" Name="IntegrationPointMetaData" NumberOfTuples="237" format="ascii" RangeMin="34" RangeMax="125">
        123 34 105 110 116 101
        103 114 97 116 105 111
        110 95 112 111 105 110
        116 95 97 114 114 97
        121 115 34 58 91 123
        34 105 110 116 101 103
        114 97 116 105 111 110
        95 111 114 100 101 114
        34 58 50 44 34 110
        97 109 101 34 58 34
        115 105 103 109 97 95
        105 112 34 44 34 110
        117 109 98 101 114 95
        111 102 95 99 111 109
        112 111 110 101 110 116
        115 34 58 54 125 44
        123 34 105 110 116 101
        103 114 97 116 105 111
        110 95 111 114 100 101
        114 34 58 50 44 34
        110 97 109 101 34 58
        34 101 112 115 105 108
        111 110 95 105 112 34
        44 34 110 117 109 98
        101 114 95 111 102 95
        99 111 109 112 111 110
        101 110 116 115 34 58
        54 125 44 123 34 105
        110 116 101 103 114 97
        116 105 111 110 95 111
        114 100 101 114 34 58
        50 44 34 110 97 109
        101 34 58 34 101 112
        115 105 108 111 110 95
        109 95 105 112 34 44
        34 110 117 109 98 101
        114 95 111 102 95 99
        111 109 112 111 110 101
        110 116 115 34 58 54
        125 93 125
      </DataArray>
      <DataArray type="Int8" Name="OGS_VERSION" NumberOfTuples="41" format="ascii" RangeMin="45" RangeMax="121">
        54 46 50 46 48 45
        49 48 49 45 103 55
        51 53 48 48 48 50
        98 49 46 100 105 114
        116 121 46 50 48 49
        57 48 52 50 54 49
        52 51 56 53 55
      </DataArray>
      <DataArray type="Float64" Name="epsilon_ip" NumberOfComponents="6" NumberOfTuples="4320" format="ascii" RangeMin="1.1270166538e-06" RangeMax="0.00019887298335">
        0.00019887298335 4.4733227084e-18 -3.390267355e-19 -1.1801097182e-18 1.099013185e-18 2.3492872409e-18
        0.00019887298335 3.5734360851e-18 -4.4099170338e-19 -8.9401791238e-19 4.9070863014e-19 2.1772167061e-20
        0.00019887298335 2.6539613224e-18 -5.4295667126e-19 -9.2241259451e-19 1.8886396913e-19 -1.4961430785e-18
        0.00019887298335 -2.3010594879e-19 1.0184164018e-18 -2.4234498497e-18 8.8515808937e-19 6.2506211082e-19
        0.00019887298335 -6.4413881161e-20 3.0353164628e-19 -1.2941773208e-18 4.5797351031e-19 4.8380012869e-19
        0.00019887298335 8.1690046986e-20 -4.1135310922e-19 -5.6502800051e-19 3.3724882507e-19 -6.4832465378e-19
        0.00019887298335 -4.9335346059e-18 2.033207727e-18 -4.3398012998e-19 1.3851364834e-19 -9.1104076964e-19
        0.00019887298335 -3.7022638474e-18 7.0540318389e-19 6.95484815e-19 -1.0755095495e-19 1.0500851038e-18
        0.00019887298335 -2.4905812284e-18 -6.2240135923e-19 1.3427834874e-18 -4.7155664429e-20 2.223867921e-19
        0.000195 1.136536772e-18 1.2051972585e-18 -2.5558278871e-18 2.1457578298e-19 4.9869738931e-18
        0.000195 1.273306512e-18 2.8380264357e-19 -1.9623764123e-18 5.0990840931e-19 -6.1032778172e-19
        0.000195 1.3090439911e-18 -6.3759197139e-19 -2.7438395482e-18 2.1014836219e-19 -5.4251233137e-18
        0.000195 -3.3288414854e-19 -7.2345034039e-20 -1.1239562388e-18 -2.1234706285e-19 3.0714213213e-18
        0.000195 2.647597547e-20 1.9644569791e-19 -4.1241330125e-20 2.5468588743e-19 3.4589430224e-19
        0.000195 2.8480383861e-19 4.6523642986e-19 -3.657718487e-19 1.2662616425e-19 -3.3988228774e-18
        0.000195 -1.802305069e-18 -1.5922557136e-18 3.5419231461e-18 -7.5056510067e-19 1.2837972536e-18
        0.000195 -1.220354561e-18 -1.3327963476e-19 4.2757047238e-18 -1.1183182644e-19 1.3170066163e-18
        0.000195 -7.394363139e-19 1.3256964441e-18 3.5519417753e-18 -6.8191225679e-20 -1.4343798177e-18
        0.00019112701665 -1.8192875536e-18 2.4450876784e-18 -6.0901356943e-18 -2.3461362156e-19 9.5796096516e-18
        0.00019112701665 -1.0509883438e-18 7.0426341633e-19 -4.0489375718e-18 8.0010299049e-19 6.7311452235e-19
        0.00019112701665 -4.6516551627e-19 -1.0365608457e-18 -4.369711697e-18 3.3817436182e-19 -7.4398825491e-18
        0.00019112701665 -5.4700737506e-20 -1.1389336532e-18 -2.0300692714e-18 -6.7204077088e-19 6.2508864466e-18
        0.00019112701665 9.3200549444e-20 1.1353256623e-19 2.0547085589e-19 5.2495651329e-19 9.227720056e-19
        0.00019112701665 5.8625454123e-20 1.3659987856e-18 9.5734689246e-21 2.2530855674e-19 -5.4138194152e-18
        0.00019112701665 1.7098860786e-18 -4.8650399467e-18 5.3119203074e-18 -7.9926895877e-19 2.9866038152e-18
        0.00019112701665 1.2373894427e-18 -6.1928324584e-19 6.8892310488e-18 5.6000899752e-19 1.1271467107e-18
        0.00019112701665 5.8241642451e-19 3.626473455e-18 5.9632432384e-18 4.2264171309e-19 -3.5023206191e-18
        0.00019887298335 -5.9375190401e-18 -2.9830794039e-18 6.9986748974e-20 -1.0164495463e-18 6.8916022409e-19
        0.00019887298335 -1.5113854426e-18 4.4099170338e-19 -4.9726459971e-19 -1.2551723351e-18 -1.2222298605e-18
        0.00019887298335 3.2723123778e-18 3.8650628106e-18 -1.1315526932e-18 -2.0464949449e-19 8.5708211431e-19
        0.00019887298335 8.50708338e-20 -1.1491114948e-18 3.5275275151e-18 -1.9856891734e-18 6.593304989e-19
        0.00019887298335 -3.0595958265e-19 -3.0353164628e-19 8.3384663791e-19 -2.5745199796e-18 -5.8760003286e-19
        0.00019887298335 -3.3942577631e-19 5.4204820225e-19 -1.9859050424e-18 -1.8741051565e-18 -1.0500175861e-18
        0.00019887298335 6.1076607077e-18 1.0275082263e-18 1.9574336997e-18 -5.4634679358e-19 6.1945194417e-19
        0.00019887298335 8.9946627725e-19 -7.0540318389e-19 8.3246430186e-19 -1.4852856172e-18 1.4619579494e-19
        0.00019887298335 -3.9511639305e-18 -2.4383145941e-18 -4.4736334892e-19 -1.1349788115e-18 -2.7459357415e-18
        0.000195 -7.3628142078e-19 2.8726764267e-19 -3.3165328932e-18 2.2884067076e-20 4.3547739433e-18
        0.000195 -1.4548006672e-19 -2.8380264357e-19 -2.9563799839e-18 1.5132517738e-19 -5.6869921593e-19
        0.000195 7.5672872074e-19 -8.5487292982e-19 -2.9450663791e-18 -3.3906519497e-20 -1.4956221506e-18
        0.000195 2.4998920176e-19 -2.5272102604e-19 1.7961265203e-18 4.5111719814e-20 3.4466568576e-18
        0.000195 -2.5937104018e-19 -1.9644569791e-19 4.8746724411e-19 -1.0333508009e-19 -2.4036223919e-19
        0.000195 -4.573238487e-19 -1.4017036979e-19 -1.1634811647e-18 -5.6545468718e-19 -3.1975491983e-18
        0.000195 1.2362598243e-18 -5.5034130774e-19 1.8724666825e-18 6.1742017055e-19 2.4682971968e-18
        0.000195 -3.7326201363e-19 1.3327963476e-19 2.6455384323e-18 1.9208546043e-19 5.6147433862e-20
        0.000195 -1.6713764181e-18 8.1690057725e-19 3.0169875199e-18 -5.4692205687e-19 -4.7799329403e-18
        0.00019112701665 4.1013383378e-18 3.8619482634e-18 -2.6868419864e-18 1.0552404759e-18 4.4962085752e-18
        0.00019112701665 1.23326805e-18 -7.0426341633e-19 -4.3326068927e-18 1.7150986807e-18 -3.485043411e-18
        0.00019112701665 -1.3695515938e-18 -5.2704750961e-18 -6.4709573612e-18 4.5836564181e-19 -7.4443786318e-18
        0.00019112701665 5.1289708917e-20 6.1949662606e-19 4.062668321e-18 1.8807051077e-18 5.5811356287e-18
        0.00019112701665 -1.9993975682e-19 -1.1353256623e-19 1.2802769435e-18 2.3368955095e-18 -6.3137600512e-19
        0.00019112701665 -1.8591857852e-19 -8.4656175852e-19 -2.0552314113e-18 8.764946676e-19 -6.0410522754e-18
        0.00019112701665 -3.99875892e-18 -2.4808700493e-18 5.7758593769e-18 1.3977493284e-18 6.4628548187e-18
        0.00019112701665 -1.6331475636e-18 6.1928324584e-19 5.5738439463e-18 1.6502719273e-18 2.1266974324e-18
        0.00019112701665 9.9771443674e-19 3.719436541e-18 4.7342224135e-18 -1.3796717643e-20 -4.6235965357e-18
        0.00019887298335 1.8973867108e-18 1.7748257415e-18 -2.4517851416e-18 -1.3751952324e-20 -9.2797884226e-19
        0.00019887298335 -2.2869186201e-18 5.8721154831e-19 -4.5798698704e-19 5.7260162969e-19 9.1877217125e-19
        0.00019887298335 -6.4516358116e-18 -6.0040264492e-19 1.4678138002e-18 6.116138329e-19 2.2900073404e-19
        0.00019887298335 2.3010594879e-19 1.2152970491e-19 -1.9738606165e-18 1.1287626561e-18 5.1063631843e-19
        0.00019887298335 6.4413881161e-20 2.8598269299e-20 1.2030447582e-18 1.683445981e-18 -8.8384398693e-20
        0.00019887298335 -8.1690046986e-20 -6.4333166312e-20 4.3865090456e-18 1.690787927e-18 -4.9714265062e-19
        0.00019887298335 -1.4371748132e-18 -1.4880139569e-18 4.9253339945e-20 2.619706328e-19 2.0960340088e-18
        0.00019887298335 2.4157463824e-18 -4.8626263493e-19 1.0825850495e-18 7.8498370055e-19 -9.5836830234e-19
        0.00019887298335 6.2882557176e-18 5.1548868709e-19 2.1892456958e-18 7.6065538948e-19 -1.1087944999e-18
        0.000195 4.6066543522e-19 -1.5565706621e-18 -5.1457082281e-18 -4.0449572594e-19 1.0204049986e-18
        0.000195 -5.8912970981e-19 -2.2228376534e-19 -4.2543458751e-18 -7.8934077152e-19 1.1589686726e-18
        0.000195 -1.537892594e-18 1.1120031314e-18 -3.1135412366e-18 -3.6484647558e-19 -1.2804584154e-18
        0.000195 3.3288414854e-19 2.9345513924e-19 -1.7818121336e-18 6.3618794538e-20 2.1579208036e-18
        0.000195 -2.647597547e-20 9.0633529501e-21 3.8962829288e-19 -4.1127440132e-19 -1.5319232201e-19
        0.000195 -2.8480383861e-19 -2.7532843334e-19 2.9410684309e-18 -7.6828255658e-20 -2.2987766862e-18
        0.000195 2.0510286187e-19 2.2225449802e-18 3.1311665201e-18 1.865158045e-19 3.7357010813e-18
        0.000195 5.3617775887e-19 3.1947451092e-19 3.2545067777e-18 -3.7842554163e-19 -1.0468018771e-18
        0.000195 9.6828491676e-19 -1.5835959584e-18 3.8919978295e-18 -1.3402754624e-19 -2.9582347833e-18
        0.00019112701665 -1.3570174512e-18 -4.542603302e-18 -6.6411468901e-18 -7.3626811033e-19 2.2428702375e-18
[...]
      <PointData>
        <DataArray type="Float64" Name="HeatFlux" format="ascii" RangeMin="-0.026666666667" RangeMax="0.026666666667">
          -1.0581813203e-16 -0.013333333333 -0.0066666666667 -1.049507703e-15 -4.9960036108e-16 -0.0066666666667
          -0.0033333333334 -1.6479873022e-16 -6.7307270868e-16 -0.0066666666667 -0.0033333333334 -9.7144514655e-17
          -6.5225602697e-16 -0.0066666666667 -1.7694179455e-16 -0.0033333333334 -1.6306400674e-16 -0.0033333333334
          -4.7878367937e-15 -2.0209528495e-15 -1.9897278269e-15 -1.4363510381e-15 -2.0261570199e-15 -8.3266726847e-16
          -1.9532986339e-15 -1.4259426973e-15 -8.6736173799e-16 -6.0750016129e-15 -3.5284275501e-15 -2.7478019859e-15
          -1.443289932e-15 -2.7755575616e-15 -1.4120649094e-15 -3.1606661732e-15 -1.6132928327e-15 -1.0894063429e-15
          -6.6127658904e-15 -3.7643499429e-15 -4.3524212012e-15 -1.9290125053e-15 -3.3289343504e-15 -1.9186041644e-15
          -3.9898639947e-15 -1.9081958236e-15 -1.5994150449e-15 -7.2476746826e-15 -4.4738518445e-15 -4.5380366132e-15
          -2.1146279172e-15 -4.0644571042e-15 -1.698294283e-15 -4.6317116809e-15 -1.7104373473e-15 -1.6861512186e-15
          -1.1496012475e-14 -4.7956430493e-15 -5.1694759584e-15 -2.8449465006e-15 -4.7930409641e-15 -2.8223950954e-15
          -4.9162063309e-15 -2.9698465909e-15 -2.9663771439e-15 -1.3387728426e-14 -5.419276139e-15 -5.4626442259e-15
          -3.4703143137e-15 -5.6829541073e-15 -3.2968419661e-15 -5.4678483963e-15 -3.3445468617e-15 -3.4278135885e-15
          -1.2269699146e-14 -6.4072011585e-15 -6.6882263616e-15 -3.1927585575e-15 -6.5407748662e-15 -3.1693397906e-15
          -7.0395078655e-15 -2.9559688031e-15 -2.8727020762e-15 -1.4039117091e-14 -7.077671782e-15 -7.2502767678e-15
          -3.5197539328e-15 -6.9839967143e-15 -3.3167912861e-15 -7.0846106759e-15 -3.4208746946e-15 -3.644654023e-15
          -1.4422490979e-14 -7.1713468497e-15 -7.1045599959e-15 -3.717512409e-15 -7.474923458e-15 -3.8354736054e-15
          -7.0499162064e-15 -3.6290415117e-15 -3.7608804959e-15 -1.546072298e-14 -7.7897757689e-15 -7.832276494e-15
          -3.8519534784e-15 -7.8079903654e-15 -4.0002723356e-15 -8.0404433112e-15 -3.8424124993e-15 -3.7071040682e-15
          -1.3902941298e-14 -7.5165568214e-15 -7.4237491154e-15 -3.4867941867e-15 -7.454974138e-15 -3.6030206596e-15
          -7.4332900946e-15 -3.571795637e-15 -3.4052621833e-15 -1.4072076837e-14 -6.4371251385e-15 -6.6396541043e-15
          -3.5639893814e-15 -6.60756172e-15 -3.5791682118e-15 -6.7775646206e-15 -3.5232233797e-15 -3.3688329903e-15
          -1.3443239577e-14 -6.3048524734e-15 -6.1942638518e-15 -3.3033471791e-15 -6.1617377867e-15 -3.3553888834e-15
          -6.3187302612e-15 -3.3922517573e-15 -3.3783739695e-15 -1.0843322767e-14 -6.1305127641e-15 -6.0346692921e-15
          -2.6480553861e-15 -6.1292117215e-15 -2.7347915599e-15 -6.0888794007e-15 -2.6844845791e-15 -2.7599450503e-15
          -9.4169463893e-15 -5.1048575089e-15 -4.9738858865e-15 -2.3626933743e-15 -4.9691153969e-15 -2.3453461395e-15
          -4.9136042457e-15 -2.3019780526e-15 -2.4138677168e-15 -6.879045944e-15 -3.6064901066e-15 -3.4638091007e-15
          -1.7551064768e-15 -3.5076108684e-15 -1.6887533039e-15 -3.4746511224e-15 -1.7256161777e-15 -1.7325550716e-15
          -5.7107096829e-15 -2.5032059758e-15 -2.489328188e-15 -1.4094628242e-15 -2.4568021229e-15 -1.459769805e-15
          -2.4615726124e-15 -1.4129322712e-15 -1.4458920172e-15 -3.5093455919e-15 -1.224714774e-15 -1.2056328158e-15
          -8.9078050491e-16 -1.2173421993e-15 -8.6519333364e-16 -1.2069338584e-15 -8.8774473883e-16 -9.0465829272e-16
          -4.3541559247e-16 1.8778381627e-16 1.3357370765e-16 -9.6710833786e-17 1.9038590149e-16 -1.1926223897e-16
          1.747733902e-16 -1.1015494072e-16 -1.1709383463e-16 2.8692326293e-15 1.4155343564e-15 1.3682631417e-15
          7.2294600861e-16 1.4276774207e-15 7.1383871036e-16 1.3782378017e-15 7.4506373293e-16 7.1774183819e-16
          6.1248749128e-15 2.1380466841e-15 2.1393477267e-15 1.5421691701e-15 2.0912091503e-15 1.5291587441e-15
          2.0643209364e-15 1.5343629145e-15 1.5282913823e-15 7.3422171121e-15 3.0643890203e-15 3.0873741064e-15
          1.8357711185e-15 3.098649809e-15 1.8110513089e-15 3.1025529368e-15 1.8093165854e-15 1.7989082446e-15
          8.9537752213e-15 5.1334804463e-15 5.2288902375e-15 2.2573089231e-15 5.1963641723e-15 2.2490689866e-15
          5.2085072366e-15 2.2664162214e-15 2.2889676266e-15 1.1041081244e-14 6.0272967173e-15 6.101022465e-15
          2.787266945e-15 6.0763026555e-15 2.7855322215e-15 5.9084681592e-15 2.7200464103e-15 2.7981089668e-15
          1.2749350187e-14 6.4479671602e-15 6.4557734158e-15 3.2951072426e-15 6.465314395e-15 3.2352592827e-15
          6.4150074142e-15 3.2543412409e-15 3.1398494915e-15 1.406340322e-14 6.3751087742e-15 6.3456184751e-15
          3.4573038876e-15 6.5130192906e-15 3.462508058e-15 6.3993949029e-15 3.465977505e-15 3.4503649937e-15
          1.4639331414e-14 6.9727210117e-15 7.1375197419e-15 3.5691935518e-15 7.2468073209e-15 3.5908775953e-15
          7.3187983451e-15 3.6741443221e-15 3.60822483e-15 1.5284648547e-14 7.8487563671e-15 7.9129411357e-15
          3.8649639045e-15 7.7837042367e-15 3.8805764158e-15 7.9745238191e-15 3.8892500331e-15 3.9881292713e-15
          1.4857906572e-14 6.7871055998e-15 7.2858385991e-15 3.7365943673e-15 7.398595625e-15 3.8155242854e-15
          7.1435912741e-15 3.9621084191e-15 3.7296554734e-15 1.3555996603e-14 6.8929237318e-15 7.1574690619e-15
          3.4841921015e-15 7.0264974394e-15 3.3211280948e-15 7.1539996149e-15 3.320260733e-15 3.3896496721e-15
          1.2204647015e-14 6.8634334327e-15 6.9666494795e-15 3.0834709785e-15 6.4861310767e-15 2.9334173979e-15
          6.786238238e-15 3.0669911055e-15 3.0912772342e-15 1.2009490624e-14 6.2051058736e-15 6.1443905519e-15
          3.1797481315e-15 6.1131655293e-15 3.1363800446e-15 6.2658211952e-15 2.9871938256e-15 2.9663771439e-15
          1.1586218096e-14 4.9214105013e-15 5.3256010712e-15 2.9923979961e-15 5.597952657e-15 2.9490299092e-15
          5.1000870194e-15 2.671474153e-15 2.7859659024e-15 7.8131945358e-15 4.2153780466e-15 3.9811903774e-15
          2.0938112355e-15 4.4131365229e-15 2.2343238371e-15 4.2015002588e-15 1.9012569297e-15 2.1163626407e-15
          7.1800204671e-15 3.5995512127e-15 3.6030206596e-15 1.8735013541e-15 3.7435332612e-15 1.5456386171e-15
          3.7261860264e-15 1.519617765e-15 1.7104373473e-15 5.9639793104e-15 3.0496438708e-15 3.4139358007e-15
          1.6566609196e-15 2.4025920142e-15 1.589006704e-15 2.9282132274e-15 1.5785983631e-15 1.5751289162e-15
          3.7643499429e-15 2.3522850334e-15 2.0834028946e-15 1.188285581e-15 2.492797635e-15 1.2299189445e-15
          2.0122792321e-15 1.446759379e-15 1.0061396161e-15 1.1865508576e-15 5.1000870194e-16 6.3317406873e-16
          -1.9949319974e-16 9.1246454836e-16 3.5735303605e-16 3.3653635434e-16 1.4571677198e-16 4.1980308119e-16
          0.013333333333 0.0066666666667 0.0066666666667 0.0033333333334 0.0066666666667 0.0033333333334
          0.0066666666667 0.0033333333334 0.0033333333334 0.013333333333 0.013333333333 0.013333333333
          0.026666666667 0.013333333333 0.026666666667 0.026666666667 0.013333333333 0.026666666667
          0.013333333333 0.013333333333 0.013333333333 -4.3715031595e-16 2.0816681712e-17 -3.6776137691e-16
          7.2164496601e-16 -1.4641066137e-15 3.5735303605e-16 -2.9490299092e-16 4.6490589156e-16 -4.2674197509e-16
          -2.7061686225e-16 -3.538835891e-16 -4.0245584643e-16 -7.2164496601e-16 -2.0816681712e-16 -6.0368376964e-16
          -8.5348395018e-16 -4.3021142204e-16 -8.881784197e-16 -5.1347814889e-16 -5.2041704279e-16 -3.1918911958e-16
          -7.1123662515e-16 -1.7659484985e-15 -9.1593399532e-16 -1.2316536679e-15 -2.9351521214e-15 -1.6896206656e-15
          -7.5286998857e-16 -1.2177758801e-15 -9.0899510141e-16 -9.9226182826e-16 -1.2351231149e-15 -1.4294121442e-15
          -2.3731017151e-15 -1.2212453271e-15 -2.7269853042e-15 -2.8588242884e-15 -1.3183898417e-15 -2.7755575616e-15
          -1.2767564783e-15 -1.2628786905e-15 -1.1032841307e-15 -1.5543122345e-15 -3.7886360715e-15 -1.4606371668e-15
          -3.1641356202e-15 -5.9258153939e-15 -3.3376079678e-15 -1.3773704399e-15 -3.2890357105e-15 -1.6445178552e-15
          -1.8526846723e-15 -1.8388068845e-15 -2.2065682614e-15 -3.7747582837e-15 -2.1233015346e-15 -3.753941602e-15
          -3.8927194801e-15 -1.8318679906e-15 -3.9274139496e-15 -2.0400348077e-15 -1.9567680809e-15 -1.8596235662e-15
          -1.8839096949e-15 -4.0280279112e-15 -1.9949319974e-15 -3.6290415117e-15 -7.7680917254e-15 -3.757411049e-15
          -1.9671764218e-15 -3.9308833966e-15 -2.022687573e-15 -2.3175905639e-15 -2.2898349883e-15 -2.525757381e-15
          -4.4131365229e-15 -2.525757381e-15 -4.6698755973e-15 -4.7878367937e-15 -2.4008572908e-15 -4.8849813084e-15
          -2.2759572005e-15 -2.3453461395e-15 -2.4008572908e-15 -2.6402491304e-15 -4.4513004394e-15 -2.7720881146e-15
          -4.402728182e-15 -1.0529771499e-14 -4.3402781369e-15 -2.4841240176e-15 -4.406197629e-15 -2.3626933743e-15
          -2.9559688031e-15 -2.9490299092e-15 -2.9420910153e-15 -5.8009153037e-15 -3.032296636e-15 -5.8980598183e-15
          -5.8078541976e-15 -2.8102520311e-15 -5.9605098635e-15 -2.7478019859e-15 -2.8241298189e-15 -3.0114799543e-15
          -3.1034202985e-15 -6.356026816e-15 -3.0600522116e-15 -6.101022465e-15 -1.2300924168e-14 -5.8234667089e-15
          -3.0704605525e-15 -6.1513294458e-15 -3.2161773245e-15 -3.8649639045e-15 -3.7470027081e-15 -3.6221026178e-15
          -7.2788997052e-15 -3.5665914666e-15 -7.5148220979e-15 -7.292777493e-15 -3.4278135885e-15 -7.5495165675e-15
          -3.6012859361e-15 -3.7608804959e-15 -3.7678193898e-15 -3.1450536619e-15 -8.1410572728e-15 -3.1311758741e-15
          -8.3943269003e-15 -1.2899403767e-14 -8.5157575436e-15 -3.3636288199e-15 -7.8062556419e-15 -2.926478504e-15
          -4.0314973582e-15 -4.2812975387e-15 -4.2882364326e-15 -8.375244942e-15 -4.1217029789e-15 -8.0699336102e-15
          -7.8548278992e-15 -4.0384362521e-15 -8.4376949872e-15 -4.0661918277e-15 -4.0106806765e-15 -4.1217029789e-15
          -4.0713959981e-15 -7.8374806645e-15 -3.9794556539e-15 -7.9432987965e-15 -1.568536967e-14 -7.8409501114e-15
          -4.118233532e-15 -7.7611528315e-15 -4.227521111e-15 -4.5102810375e-15 -4.4964032497e-15 -4.3992587351e-15
          -8.6389229104e-15 -4.4547698863e-15 -8.6458618043e-15 -8.7638230006e-15 -4.3576253717e-15 -8.9095397726e-15
          -4.1980308119e-15 -4.4478309924e-15 -4.5102810375e-15 -4.2917058796e-15 -8.2954476621e-15 -4.3558906482e-15
          -8.1410572728e-15 -1.6953452531e-14 -8.3977963472e-15 -4.3142572848e-15 -7.9224821148e-15 -4.4513004394e-15
          -4.8849813084e-15 -4.767020112e-15 -4.6559978095e-15 -9.457712391e-15 -4.7878367937e-15 -9.4230179215e-15
          -9.3536289825e-15 -4.7184478547e-15 -9.5548569057e-15 -4.5935477644e-15 -4.7808978998e-15 -4.767020112e-15
          -4.3541559247e-15 -8.8939272613e-15 -4.515485208e-15 -9.024031522e-15 -1.7548462683e-14 -8.9615814769e-15
          -4.4478309924e-15 -8.8592327918e-15 -4.5033421436e-15 -4.9474313535e-15 -4.9786563761e-15 -4.8988590962e-15
          -9.5617957996e-15 -4.9474313535e-15 -9.8532293435e-15 -9.8671071314e-15 -4.7878367937e-15 -9.9850683277e-15
          -4.8086534754e-15 -4.9578396943e-15 -4.9439619065e-15 -4.7704895589e-15 -9.3137303425e-15 -4.6490589156e-15
          -9.1957691462e-15 -1.9130530493e-14 -9.3224039599e-15 -4.7357950894e-15 -9.2894442139e-15 -4.7184478547e-15
          -4.9960036108e-15 -5.0411064212e-15 -5.2666204731e-15 -1.0241807402e-14 -5.2666204731e-15 -1.0106498971e-14
          -1.022099072e-14 -5.1833537462e-15 -1.0359768599e-14 -5.1070259133e-15 -5.054984209e-15 -4.9335535657e-15
          -4.7739590059e-15 -9.1263802071e-15 -4.7756937294e-15 -9.0049495638e-15 -1.9241552796e-14 -9.0465829272e-15
          -4.8780424144e-15 -9.1489316123e-15 -4.7704895589e-15 -4.8260007102e-15 -4.9162063309e-15 -5.0029425047e-15
          -9.5479180118e-15 -4.8953896492e-15 -9.9052710478e-15 -9.89139326e-15 -4.8502868388e-15 -9.7005736777e-15
          -4.982125823e-15 -5.054984209e-15 -4.839878498e-15 -4.3229309021e-15 -8.7594861919e-15 -4.3949219264e-15
          -8.557390907e-15 -1.7500757787e-14 -8.5053492027e-15 -4.439157375e-15 -8.6076978878e-15 -4.4773212915e-15
          -4.5623227418e-15 -4.6351811278e-15 -4.6525283626e-15 -9.0691343324e-15 -4.6178338931e-15 -9.0587259916e-15
          -9.4230179215e-15 -4.62130334e-15 -9.1628094001e-15 -4.5762005296e-15 -4.5692616357e-15 -4.5762005296e-15
          -3.9551695252e-15 -8.6935666999e-15 -3.8849132245e-15 -8.6970361468e-15 -1.5549193877e-14 -8.537441587e-15
          -3.9482306313e-15 -8.537441587e-15 -3.8441472228e-15 -4.4096670759e-15 -4.3368086899e-15 -4.2778280918e-15
          -8.6319840165e-15 -4.3159920082e-15 -8.7065771259e-15 -8.772496618e-15 -4.3715031595e-15 -8.6423923573e-15
          -4.2500725161e-15 -4.3732378829e-15 -4.4235448637e-15 -3.9464959078e-15 -7.4506373293e-15 -3.9291486731e-15
          -7.5070158423e-15 -1.587532189e-14 -7.382115752e-15 -3.8389430523e-15 -7.7013048716e-15 -3.988996633e-15
          -3.8424124993e-15 -3.8215958176e-15 -3.8025138593e-15 -7.9138084974e-15 -3.9065972679e-15 -7.6362527412e-15
          -7.6084971656e-15 -3.899658374e-15 -7.8478890053e-15 -3.8753722453e-15 -3.899658374e-15 -3.8545555636e-15
          -3.4946004424e-15 -6.2588823013e-15 -3.4685795902e-15 -6.30311775e-15 -1.4445042384e-14 -6.339546943e-15
          -3.575265084e-15 -6.2814337065e-15 -3.5110803154e-15 -3.3393426913e-15 -3.2421981766e-15 -3.108624469e-15
          -6.6006228261e-15 -3.1467883854e-15 -6.3074545587e-15 -6.4132726907e-15 -3.1797481315e-15 -6.4150074142e-15
          -3.2751579226e-15 -3.3306690739e-15 -3.2595454114e-15 -2.6133609166e-15 -5.0077129943e-15 -2.6502237904e-15
          -5.1811853419e-15 -1.0288644936e-14 -5.1586339367e-15 -2.5261910619e-15 -5.0367696125e-15 -2.5934115966e-15
          -2.3887142264e-15 -2.4875934646e-15 -2.2915697118e-15 -4.839878498e-15 -2.2464669014e-15 -4.6473241921e-15
          -4.6039561052e-15 -2.3366725221e-15 -4.7392645364e-15 -2.3991225673e-15 -2.4476948246e-15 -2.419939249e-15
          -1.8578888428e-15 -3.6086585109e-15 -1.8726339923e-15 -3.7188134516e-15 -7.3426507929e-15 -3.7417985377e-15
          -1.7928367124e-15 -3.6650370239e-15 -1.8375058419e-15 -1.7503359873e-15 -1.7902346272e-15 -1.66186509e-15
          -3.4902636337e-15 -1.6115581092e-15 -3.2352592827e-15 -3.287300987e-15 -1.7156415177e-15 -3.3376079678e-15
          -1.6844164952e-15 -1.7503359873e-15 -1.7642137751e-15 -1.0649033738e-15 -2.818708808e-15 -1.0020196478e-15
          -2.8074331054e-15 -4.0896105946e-15 -2.9043607797e-15 -1.0113437865e-15 -2.842127575e-15 -9.8987658348e-16
          -8.8470897275e-16 -9.0899510141e-16 -9.0552565446e-16 -1.8995222062e-15 -9.246076127e-16 -1.7798262864e-15
          -1.6566609196e-15 -9.749145935e-16 -1.767683222e-15 -9.4542429441e-16 -8.6215756756e-16 -9.8011876393e-16
          -3.0671326716e-16 -1.0700306114e-15 -3.1901129397e-16 -1.0854918906e-15 -1.2516312966e-15 -1.0900964974e-15
          -3.004512739e-16 -1.1072358827e-15 -2.9959483247e-16 5.2041704279e-17 2.4286128664e-17 -1.2143064332e-17
          2.0816681712e-17 -5.5511151231e-17 -1.1102230246e-16 1.0408340856e-16 -2.2551405188e-17 1.9081958236e-17
          -2.7755575616e-17 7.9797279895e-17 -3.2959746044e-17 5.1217710628e-16 6.7198850651e-16 5.9132386487e-16
          8.1835579979e-16 2.1491055463e-15 6.8695049649e-16 4.9526355239e-16 6.8586629431e-16 5.7224190664e-16
          9.2113816574e-16 8.9858676056e-16 9.5236318831e-16 1.9151347175e-15 9.4542429441e-16 1.6375789613e-15
          1.7486012638e-15 9.4889374136e-16 1.9637069748e-15 9.1072982489e-16 9.2981178312e-16 9.0032148403e-16
          1.0694570229e-15 2.8024457754e-15 1.0789980021e-15 2.8466812241e-15 4.4044629055e-15 2.8197930102e-15
          1.1045851733e-15 2.7703533911e-15 1.1227997698e-15 1.8197249263e-15 1.66186509e-15 1.66186509e-15
          3.4208746946e-15 1.7017637299e-15 3.1866870254e-15 3.4555691641e-15 1.7156415177e-15 3.3618940964e-15
          1.6740081543e-15 1.844011055e-15 1.7225804116e-15 1.4918621893e-15 4.366298989e-15 1.5031378919e-15
          4.4179070124e-15 6.2584486205e-15 4.3489517543e-15 1.5170156797e-15 4.3658653082e-15 1.5014031685e-15
          2.4286128664e-15 2.4147350786e-15 2.3661628212e-15 4.6750797678e-15 2.4268781429e-15 4.6820186617e-15
          4.6854881086e-15 2.3644280978e-15 4.694161726e-15 2.3609586508e-15 2.4390212072e-15 2.4147350786e-15
          2.602085214e-15 4.8554910093e-15 2.6324428748e-15 5.0558515707e-15 1.0586150012e-14 4.9517681622e-15
          2.6367796835e-15 4.8953896492e-15 2.6610658121e-15 3.2578106879e-15 3.247402347e-15 3.2768926461e-15
          6.3109240056e-15 3.2231162184e-15 6.4375588193e-15 6.465314395e-15 3.2040342601e-15 6.3941907325e-15
          3.2421981766e-15 3.2612801348e-15 3.2387287296e-15 3.498937251e-15 6.3794455829e-15 3.4711816754e-15
          6.2927094091e-15 1.4195242204e-14 6.2606170248e-15 3.5579178492e-15 6.2953114943e-15 3.4729163989e-15
          3.8198610941e-15 3.8198610941e-15 3.9898639947e-15 7.7542139376e-15 4.0210890173e-15 7.6709472108e-15
          7.7854389602e-15 3.9412917374e-15 7.7715611724e-15 3.9135361618e-15 3.866698628e-15 3.7626152194e-15
          3.9222097792e-15 7.5573228231e-15 3.9005257357e-15 7.5304346092e-15 1.6060069941e-14 7.4853317988e-15
          3.9785882922e-15 7.5581901848e-15 3.9438938226e-15 4.3368086899e-15 4.3264003491e-15 4.4235448637e-15
          8.524431161e-15 4.3992587351e-15 8.7811702354e-15 8.7256590842e-15 4.3749726064e-15 8.7430063189e-15
          4.2743586448e-15 4.2656850274e-15 4.3558906482e-15 4.1217029789e-15 8.7863744058e-15 4.0410383373e-15
          8.5157575436e-15 1.6327217356e-14 8.5339721401e-15 4.0670591894e-15 8.5053492027e-15 4.1824183006e-15
          4.6455894687e-15 4.5033421436e-15 4.624772787e-15 9.2252594452e-15 4.5866088705e-15 9.2183205513e-15
          9.5513874587e-15 4.5727310827e-15 9.3466900886e-15 4.5900783174e-15 4.6733450443e-15 4.5866088705e-15
          4.2535419631e-15 9.1628094001e-15 4.3055836674e-15 9.0708690559e-15 1.6981208106e-14 8.8748453031e-15
          4.1858877475e-15 9.0760732263e-15 4.3819115003e-15 4.8711035205e-15 4.7253867486e-15 4.912736884e-15
          9.672818102e-15 4.9196757779e-15 9.89139326e-15 1.0089151736e-14 4.8953896492e-15 9.8879238131e-15
          4.8468173919e-15 5.0098813986e-15 4.8155923693e-15 4.8277354336e-15 9.2842400434e-15 4.9578396943e-15
          9.3553637059e-15 1.8958792869e-14 8.9424995187e-15 4.7340603659e-15 9.2582191913e-15 4.8953896492e-15
          5.1833537462e-15 4.9196757779e-15 5.0792703377e-15 1.0325074129e-14 5.0862092316e-15 9.9399655173e-15
          1.0245276849e-14 5.0098813986e-15 1.0359768599e-14 5.1000870194e-15 5.2076398749e-15 4.9266146718e-15
          4.5831394235e-15 9.6207763978e-15 4.5310977193e-15 9.5357749474e-15 1.8408885527e-14 9.3588331529e-15
          4.7028353434e-15 9.3709762172e-15 4.5709963592e-15 5.1833537462e-15 4.9474313535e-15 4.8641646266e-15
          9.8671071314e-15 4.7878367937e-15 9.5826124813e-15 1.0109968418e-14 4.8572257327e-15 9.9226182826e-15
          4.9057979901e-15 5.0237591864e-15 4.8711035205e-15 4.512015761e-15 9.173217741e-15 4.4148712464e-15
          9.2044427635e-15 1.7928367124e-14 8.6181062287e-15 4.4252795872e-15 9.0830121202e-15 4.4079323525e-15
          4.8849813084e-15 4.7392645364e-15 4.8017145815e-15 9.311995619e-15 4.7045700668e-15 9.4785290727e-15
          9.4368957093e-15 4.6768144912e-15 9.6311847386e-15 4.6698755973e-15 4.7878367937e-15 4.8225312632e-15
          4.5050768671e-15 8.1636086779e-15 4.4009934586e-15 8.0300349703e-15 1.7834692057e-14 8.1167711441e-15