<?xml version="1.0"?>
<VTKFile type="UnstructuredGrid" version="1.0" byte_order="LittleEndian" header_type="UInt64">
  <UnstructuredGrid>
    <Piece NumberOfPoints="796" NumberOfCells="1449">
      <PointData>
      </PointData>
      <CellData>
        <DataArray type="Int32" Name="MaterialIDs" format="ascii" RangeMin="17" RangeMax="17">
          17 17 17 17 17 17
          17 17 17 17 17 17
          17 17 17 17 17 17
          17 17 17 17 17 17
          17 17 17 17 17 17
          17 17 17 17 17 17
          17 17 17 17 17 17
          17 17 17 17 17 17
          17 17 17 17 17 17
          17 17 17 17 17 17
          17 17 17 17 17 17
          17 17 17 17 17 17
          17 17 17 17 17 17
          17 17 17 17 17 17
          17 17 17 17 17 17
          17 17 17 17 17 17
          17 17 17 17 17 17
          17 17 17 17 17 17
          17 17 17 17 17 17
          17 17 17 17 17 17
          17 17 17 17 17 17
          17 17 17 17 17 17
          17 17 17 17 17 17
          17 17 17 17 17 17
          17 17 17 17 17 17
          17 17 17 17 17 17
          17 17 17 17 17 17
          17 17 17 17 17 17
          17 17 17 17 17 17
          17 17 17 17 17 17
          17 17 17 17 17 17
          17 17 17 17 17 17
          17 17 17 17 17 17
          17 17 17 17 17 17
          17 17 17 17 17 17
          17 17 17 17 17 17
          17 17 17 17 17 17
          17 17 17 17 17 17
          17 17 17 17 17 17
          17 17 17 17 17 17
          17 17 17 17 17 17
          17 17 17 17 17 17
          17 17 17 17 17 17
          17 17 17 17 17 17
          17 17 17 17 17 17
          17 17 17 17 17 17
          17 17 17 17 17 17
          17 17 17 17 17 17
          17 17 17 17 17 17
          17 17 17 17 17 17
          17 17 17 17 17 17
          17 17 17 17 17 17
          17 17 17 17 17 17
          17 17 17 17 17 17
          17 17 17 17 17 17
          17 17 17 17 17 17
          17 17 17 17 17 17
          17 17 17 17 17 17
          17 17 17 17 17 17
          17 17 17 17 17 17
          17 17 17 17 17 17
          17 17 17 17 17 17
          17 17 17 17 17 17
          17 17 17 17 17 17
          17 17 17 17 17 17
          17 17 17 17 17 17
          17 17 17 17 17 17
          17 17 17 17 17 17
          17 17 17 17 17 17
          17 17 17 17 17 17
          17 17 17 17 17 17
          17 17 17 17 17 17
          17 17 17 17 17 17
          17 17 17 17 17 17
          17 17 17 17 17 17
          17 17 17 17 17 17
          17 17 17 17 17 17
          17 17 17 17 17 17
          17 17 17 17 17 17
          17 17 17 17 17 17
          17 17 17 17 17 17
          17 17 17 17 17 17
          17 17 17 17 17 17
          17 17 17 17 17 17
          17 17 17 17 17 17
          17 17 17 17 17 17
          17 17 17 17 17 17
          17 17 17 17 17 17
          17 17 17 17 17 17
          17 17 17 17 17 17
          17 17 17 17 17 17
          17 17 17 17 17 17
          17 17 17 17 17 17
          17 17 17 17 17 17
          17 17 17 17 17 17
          17 17 17 17 17 17
          17 17 17 17 17 17
          17 17 17 17 17 17
          17 17 17 17 17 17
          17 17 17 17 17 17
          17 17 17 17 17 17
          17 17 17 17 17 17
          17 17 17 17 17 17
          17 17 17 17 17 17
          17 17 17 17 17 17
          17 17 17 17 17 17
          17 17 17 17 17 17
          17 17 17 17 17 17
          17 17 17 17 17 17
          17 17 17 17 17 17
          17 17 17 17 17 17
          17 17 17 17 17 17
          17 17 17 17 17 17
          17 17 17 17 17 17
          17 17 17 17 17 17
          17 17 17 17 17 17
          17 17 17 17 17 17
          17 17 17 17 17 17
          17 17 17 17 17 17
          17 17 17 17 17 17
          17 17 17 17 17 17
          17 17 17 17 17 17
          17 17 17 17 17 17
          17 17 17 17 17 17
          17 17 17 17 17 17
          17 17 17 17 17 17
          17 17 17 17 17 17
          17 17 17 17 17 17
          17 17 17 17 17 17
          17 17 17 17 17 17
          17 17 17 17 17 17
          17 17 17 17 17 17
          17 17 17 17 17 17
          17 17 17 17 17 17
          17 17 17 17 17 17
          17 17 17 17 17 17
          17 17 17 17 17 17
          17 17 17 17 17 17
          17 17 17 17 17 17
          17 17 17 17 17 17
          17 17 17 17 17 17
          17 17 17 17 17 17
          17 17 17 17 17 17
          17 17 17 17 17 17
          17 17 17 17 17 17
          17 17 17 17 17 17
          17 17 17 17 17 17
          17 17 17 17 17 17
          17 17 17 17 17 17
          17 17 17 17 17 17
          17 17 17 17 17 17
          17 17 17 17 17 17
          17 17 17 17 17 17
          17 17 17 17 17 17
          17 17 17 17 17 17
          17 17 17 17 17 17
          17 17 17 17 17 17
          17 17 17 17 17 17
          17 17 17 17 17 17
          17 17 17 17 17 17
          17 17 17 17 17 17
          17 17 17 17 17 17
          17 17 17 17 17 17
          17 17 17 17 17 17
          17 17 17 17 17 17
          17 17 17 17 17 17
          17 17 17 17 17 17
          17 17 17 17 17 17
          17 17 17 17 17 17
          17 17 17 17 17 17
          17 17 17 17 17 17
          17 17 17 17 17 17
          17 17 17 17 17 17
          17 17 17 17 17 17
          17 17 17 17 17 17
          17 17 17 17 17 17
          17 17 17 17 17 17
          17 17 17 17 17 17
          17 17 17 17 17 17
          17 17 17 17 17 17
          17 17 17 17 17 17
          17 17 17 17 17 17
          17 17 17 17 17 17
          17 17 17 17 17 17
          17 17 17 17 17 17
          17 17 17 17 17 17
          17 17 17 17 17 17
          17 17 17 17 17 17
          17 17 17 17 17 17
          17 17 17 17 17 17
          17 17 17 17 17 17
          17 17 17 17 17 17
          17 17 17 17 17 17
          17 17 17 17 17 17
          17 17 17 17 17 17
          17 17 17 17 17 17
          17 17 17 17 17 17
          17 17 17 17 17 17
          17 17 17 17 17 17
          17 17 17 17 17 17
          17 17 17 17 17 17
          17 17 17 17 17 17
          17 17 17 17 17 17
          17 17 17 17 17 17
          17 17 17 17 17 17
          17 17 17 17 17 17
          17 17 17 17 17 17
          17 17 17 17 17 17
          17 17 17 17 17 17
          17 17 17 17 17 17
          17 17 17 17 17 17
          17 17 17 17 17 17
          17 17 17 17 17 17
          17 17 17 17 17 17
          17 17 17 17 17 17
          17 17 17 17 17 17
          17 17 17 17 17 17
          17 17 17 17 17 17
          17 17 17 17 17 17
          17 17 17 17 17 17
          17 17 17 17 17 17
          17 17 17 17 17 17
          17 17 17 17 17 17
          17 17 17 17 17 17
          17 17 17 17 17 17
          17 17 17 17 17 17
          17 17 17 17 17 17
          17 17 17 17 17 17
          17 17 17 17 17 17
          17 17 17 17 17 17
          17 17 17 17 17 17
          17 17 17 17 17 17
          17 17 17 17 17 17
          17 17 17 17 17 17
          17 17 17 17 17 17
          17 17 17 17 17 17
          17 17 17 17 17 17
          17 17 17 17 17 17
          17 17 17 17 17 17
          17 17 17 17 17 17
          17 17 17 17 17 17
          17 17 17
        </DataArray>
      </CellData>
      <Points>
        <DataArray type="Float64" Name="Points" NumberOfComponents="3" format="ascii" RangeMin="17552.896864473798" RangeMax="26258.63106815743">
          13180.2583008 14282.3911133 -4218.01464844 13297.1447754 14179.0537109 -4223.90283203
          13097.5610352 14124.4667969 -4212.54492188 12082.638916 16919.3500977 -4089.71264648
          12258.9453125 16701.3432617 -4108.39013672 12054.092041 16676.3989258 -4089.02758789
          12467.2302246 13351.5317383 -4161.98388672 12375.4387207 13195.5109863 -4155.73974609
          12280.1411133 13436.7390137 -4149.57910156 13708.4138184 15297.9750977 -4224.76806641
          13879.1826172 15274.4433594 -4229.21972656 13784.7885742 15122.3173828 -4230.37792969
          12080.3105469 15424.6689453 -4116.79052734 12424.1989746 12892.3005371 -4154.00732422
          12501.5827637 13025.6403809 -4161.61962891 12561.5168457 12822.6962891 -4163.140625
          12981.5749512 18289.4609375 -4141.43554688 12959.1257324 18110.6201172 -4144.84619141
          12790.8811035 18186.8227539 -4135.21484375 13229.0083008 15580.7011719 -4202.65429688
          13236.732666 15393.1298828 -4204.75634766 12975.8498535 15415.8681641 -4190.94726563
          12778.6547852 13238.0810547 -4181.49707031 12817.1635742 13459.4572754 -4186.58691406
          12947.2070313 13320.25 -4192.42626953 13320.9838867 20001.0703125 -4126.68164063
          13302.3032227 19845.2919922 -4127.04199219 13080.3259277 19944.5126953 -4115.06103516
          13479.1203613 14743.1958008 -4227.92626953 13582.2116699 14867.5483398 -4230.64599609
          13757.5810547 14717.3310547 -4238.87597656 13188.1411133 12034.1273193 -4169.19091797
          13142.1533203 12271.3544922 -4173.94677734 13312.6000977 12165.1855469 -4178.10351563
          12086.4960938 14942.6953125 -4126.65673828 12189.0612793 15161.1835938 -4130.47607422
          12289.9990234 14930.1870117 -4148.63818359 14365.309082 13243.6303711 -4234.67236328
          14405.9643555 13066.5854492 -4228.59912109 14201.3500977 13049.5410156 -4228.21191406
          12103.4089355 16081.940918 -4096.45166016 14071.5849609 17442.8813477 -4193.65673828
          13891.6679688 17518.0161133 -4190.62890625 14062.59375 17666.921875 -4191.54248047
          12448.4624023 15834.0976563 -4140.33544922 12678.7424316 15786.7954102 -4160.13769531
          12500.3100586 15669.3139648 -4149.12939453 14539.6108398 16170.5561523 -4228.08984375
          14638.3862305 16028.5166016 -4230.12695313 14442.4389648 15923.4042969 -4227.58349609
          12126.6401367 14362.6420898 -4143.22167969 13779.6918945 19220.234375 -4155.15283203
          13794.9365234 19396.5625 -4153.47167969 13924.3273926 19290.0488281 -4159.52490234
          13557.5393066 14601.9946289 -4234.30712891 14758.0654297 18144.6030273 -4208.14697266
          14805.9155273 17986.8193359 -4210.86230469 14645.7001953 18041.2700195 -4204.4140625
          13756.447998 19786.7753906 -4148.015625 13823.5751953 19928.9033203 -4150.59375
          13951.3186035 19758.9150391 -4158.45507813 13401.3037109 21024.7958984 -4135.60791016
          13547.2402344 20956.4921875 -4143.46142578 13459.723877 20798.8125 -4135.95751953
          13661.0883789 12412.0302734 -4198.09277344 13452.9453125 12307.1455078 -4187.72216797
          13494.6853027 12502.4924316 -4194.65039063 13627.760498 13572.604248 -4230.42431641
          13546.722168 13723.9846191 -4230.00146484 13750.7412109 13815.7070313 -4239.94335938
          12142.9375 17128.6313477 -4095.05957031 12960.4626465 16871.184082 -4166.38134766
          12701.2827148 17017.2895508 -4147.39111328 12923.565918 17091.8544922 -4162.06103516
          14181.2768555 12125.7580566 -4200.54785156 14359.4619141 12073.7253418 -4195.20556641
          12455.734375 13532.3337402 -4163.50195313 14975.9335938 13877.4770508 -4233.52685547
          14908.4814453 14057.2609863 -4236.62207031 12296.7705078 17757.6591797 -4104.04736328
          12513.9675293 17757.4716797 -4120.57470703 12389.2536621 17611.5957031 -4110.51757813
          12967.9423828 13039.9785156 -4188.43457031 13146.3886719 13184.6013184 -4198.09033203
          14929.1992188 19314.7900391 -4210.47705078 14991.8393555 19123.6425781 -4213.640625
          12279.0842285 13043.6640625 -4147.11474609 12193.1738281 13201.6164551 -4139.41064453
          14708.7954102 12018.1451416 -4183.28173828 14491.2275391 14284.65625 -4248.44628906
          14554.2163086 14111.1396484 -4247.12158203 14394.4711914 14157.6586914 -4251.39453125
          13635.6621094 12640.494873 -4202.91601563 13482.1271973 12673.2868652 -4198.61669922
          13603.1677246 12794.2338867 -4206.92871094 14934.2241211 18424.6572266 -4213.30615234
          13002.5712891 12332.9121094 -4170.01171875 13185.7329102 12467.486084 -4179.96386719
          13382.013916 14557.7871094 -4226.79589844 13285.1164551 17622.3671875 -4170.26904297
          13472.2644043 17840.5351563 -4169.82373047 13508.703125 17606.0893555 -4178.43945313
          14885.4125977 20666.3828125 -4220.47753906 14989.9165039 20521.9658203 -4222.74755859
          13695.8061523 14531.5522461 -4240.64599609 13850.3522949 14517.3735352 -4246.22900391
          13703.8549805 14376.4858398 -4242.81445313 14774.5820313 15078.8359375 -4237.68261719
          14702.8144531 14942.6694336 -4240.49414063 14623.9707031 15110.8134766 -4237.65869141
          12799.4399414 13625.5686035 -4186.23681641 12790.5197754 13790.626709 -4186.90917969
          13002.4431152 13745.8029785 -4201.25244141 13710.65625 13117.7897949 -4220.6171875
          13804.0405273 12979.5725098 -4218.58691406 13619.3168945 12978.4594727 -4211.76904297
          12935.6464844 17538.8955078 -4155.09082031 13009.4558105 17690.7543945 -4157.94580078
          13099.0275879 17497.2314453 -4165.63378906 13997.1237793 12149.2753906 -4198.67871094
          12649.9873047 17890.8217773 -4127.9375 12704.4206543 17708.2451172 -4134.21679688
          14963.8081055 15325.8686523 -4234.43261719 14878.4091797 15459.5429688 -4235.17529297
          12187.2954102 20521.5996094 -4066.86474609 12148.1340332 20730.4931641 -4059.98291016
          12380.1191406 20541.3310547 -4078.87744141 12902.0285645 17357.0498047 -4157.65087891
          12713.5292969 17258.7617188 -4146.45507813 12767.9641113 17521.890625 -4144.57275391
          12301.364502 16536.7875977 -4113.54052734 12060.4504395 16491.5375977 -4093.8347168
          14973.984375 19837.0449219 -4213.89013672 14785.8291016 19825.4912109 -4204.90771484
          14902.7866211 20002.7919922 -4211.52978516 13415.5534668 15601.0991211 -4208.89990234
          12794.9133301 15005.0927734 -4184.4296875 12542.0058594 14926.3383789 -4167.13134766
          12656.6877441 15134.0532227 -4174.35986328 14762.5078125 18423.7880859 -4207.55957031
          14570.3730469 18481.2558594 -4200.76416016 14761.3476563 18580.6298828 -4206.99658203
          12247.4313965 20058.984375 -4080.66845703 12077.8430176 20037.9599609 -4071.25097656
          12092.1708984 20229.1865234 -4069.1640625 14035.2226563 13310.8085938 -4235.09521484
          14010.28125 13082.5839844 -4225.65332031 13893.9375 13237.7836914 -4230.16259766
          13163.7468262 12634.5119629 -4184.66943359 12952.182373 12477.0505371 -4174.4140625
          13010.2922363 12703.611084 -4179.54052734 13672.6049805 16215.3305664 -4206.88476563
          13807.246582 16124.1342773 -4212.65625 13554.3010254 16103.7094727 -4206.02246094
          14690.0478516 20760.0087891 -4212.40820313 14629.0883789 20948.7734375 -4213.1171875
          14869.5654297 20843.9414063 -4224.41259766 12636.907959 15518.1591797 -4162.70703125
          12761.7700195 15350.5473633 -4176.8046875 12538.644043 15339.4707031 -4156.72216797
          14901.5869141 19671.8164063 -4209.5078125 12682.8234863 15942.4272461 -4155.89746094
          12837.4282227 15929.7885742 -4170.62744141 14148.3291016 21018.4882813 -4182.28613281
          14148.4467773 20843.9179688 -4178.48828125 13908.0571289 20932.8769531 -4163.74316406
          12101.0856934 14516.9169922 -4141.14550781 12252.685791 14553.3662109 -4152.54541016
          12002.7432861 20882.9853516 -4046.48876953 13983.7631836 14670.7744141 -4245.83398438
          12460.407959 17964.5708008 -4110.23779297 12374.315918 18179.0039063 -4101.56835938
          12639.822998 18081.0581055 -4121.09521484 12412.972168 14731.3603516 -4160.73779297
          12475.9055176 14506.1401367 -4170.09423828 12038.2528076 17245.8310547 -4085.60009766
          12131.4599609 17440.3666992 -4094.66796875 13846.7607422 12336.2617188 -4201.11035156
          13634.7165527 12224.4331055 -4191.40625 12825.7265625 20990.8427734 -4103.69921875
          12765.5935059 21182.3779297 -4102.42138672 12885.8415527 21182.3779297 -4109.29394531
          13212.2148438 20114.0029297 -4121.9140625 14039.7255859 15249.9682617 -4233.94384766
          13985.0285645 15436.9990234 -4228.68408203 14161.7612305 15357.1396484 -4234.55517578
          13427.3127441 13291.8476563 -4214.71142578 13696.918457 13283.9782715 -4226.44238281
          13546.7429199 13148.5878906 -4216.44091797 14482.0053711 18280.3378906 -4197.31689453
          14389.90625 18134.9453125 -4195.13232422 14738.0981445 20566.2011719 -4211.13378906
          13794.9875488 13534.2668457 -4236.59863281 14414.1464844 19929.9697266 -4184.05810547
          14246.1708984 19883.3759766 -4174.72314453 14316.1391602 20063.6103516 -4178.68212891
          13489.5012207 15745.3393555 -4208.51513672 13233.1376953 15805.9179688 -4197.50634766
          14351.050293 18658.0146484 -4188.88720703 14192.765625 18769.3183594 -4179.08154297
          14417.9379883 18883.8583984 -4189.13183594 12904.2409668 14521.1357422 -4198.75488281
          13093.2626953 14578.6948242 -4208.90917969 13040.4790039 14351.0419922 -4207.19677734
          12724.5246582 14218.8710938 -4185.22607422 12487.015625 14083.8496094 -4168.21972656
          12587.2993164 14288.8764648 -4177.78857422 13211.9550781 15073.4428711 -4209.49169922
          13251.7548828 14870.8188477 -4215.81738281 13082.9650879 14983.4594727 -4205.43457031
          12049.7165527 20404.3164063 -4062.17285156 12250.0063477 20338.0185547 -4074.34570313
          14544.4887695 18665.2099609 -4197.40771484 13544.9455566 16656.78125 -4197.578125
          13468.4594727 16859.7353516 -4188.08935547 13724.894043 16781.5473633 -4200.11376953
          14613.8984375 19221.8144531 -4196.34472656 14785.3881836 19231.7421875 -4204.39794922
          14727.7651367 19005.7919922 -4203.02978516 14999.9101563 12558.982666 -4195.56445313
          12389.4729004 15284.793457 -4145.77832031 12285.6311035 15404.9916992 -4133.25195313
          12443.8093262 15495.5478516 -4146.92480469 14696.2001953 13280.6364746 -4231.15087891
          14845.1743164 13069.5891113 -4219.52685547 14632.2294922 13123.5234375 -4228.65087891
          12122.7211914 14741.2597656 -4138.88916016 12876.6889648 20296.9267578 -4102.99023438
          12753.8312988 20394.8193359 -4098.6640625 12902.3566895 20475.3027344 -4104.61523438
          12917.168457 14190.7978516 -4199.61816406 12766.9680176 14070.6833496 -4189.16894531
          14871.8203125 17497.2265625 -4220.12255859 14942.328125 17356.5004883 -4222.91210938
          14888.4868164 12160.6235352 -4182.98144531 12214.6169434 16390.5859375 -4111.02587891
          13292.5957031 15955.1162109 -4199.05859375 13066.3339844 15967.6181641 -4186.83056641
          13250.0422363 16109.9365234 -4193.79931641 12487.7592773 13690.2888184 -4165.98779297
          12541.2219238 13835.6838379 -4168.35888672 12635.6755371 13645.0136719 -4174.71484375
          14040.2121582 12329.9052734 -4203.90527344 12553.7062988 17272.2695313 -4130.49267578
          12392.7868652 17266.5288086 -4123.52734375 12460.1435547 17433.4306641 -4123.60009766
          12359.6367188 14291.8613281 -4159.54248047 14183.9770508 13254.2199707 -4234.66162109
          14838.6186523 20399.0175781 -4212.86865234 14834.6865234 20203.9970703 -4210.34082031
          12548.1557617 12558.8161621 -4157.66796875 12739.0944824 12590.7060547 -4165.46972656
          13547.7709961 13420.8308105 -4224.12304688 13019.9501953 12875.6394043 -4185.96582031
          12801.8212891 12822.6081543 -4172.65917969 13180.3901367 14438.4619141 -4216.1171875
          13335.6896973 14382.6645508 -4225.54296875 14238.9399414 14172.9663086 -4253.68896484
          14227.71875 14352.019043 -4252.90136719 13219.5087891 16793.2714844 -4182.30273438
          13328 16659.5771484 -4188.69873047 13318.4621582 14727.3813477 -4220.85302734
          14994.3188477 18606.3857422 -4215.88964844 14125.6298828 13891.848877 -4251.73046875
          14157.3295898 13679.7993164 -4248.62353516 13973.1826172 13790.8256836 -4246.34423828
          12807.2092285 14348.8134766 -4192.90283203 13006.0742188 21182.3779297 -4116.47753906
          13291.5449219 12340.9020996 -4183.03759766 14981.0327148 13461.2607422 -4226.35302734
          14771.3476563 13463.6933594 -4233.60546875 14918.7265625 13694.239502 -4233.39941406
          12448.8745117 16620.2324219 -4127.80810547 13177.3413086 12945.4758301 -4192.83740234
          13167.7990723 13750.2353516 -4211.67919922 13156.5471191 13546.5478516 -4207.18017578
          12978.104248 20817.0175781 -4106.58642578 12985.354248 20662.3886719 -4108.60595703
          12825.7062988 20790.1845703 -4101.03173828 14648.4223633 17754.362793 -4209.19970703
          14768.284668 17615.7695313 -4216.43212891 14539.9863281 17629.5263672 -4206.82666016
          14530.7900391 13318.3815918 -4237.21728516 13502.5175781 17223.3095703 -4186.0546875
          13328.5424805 17256.7211914 -4175.3984375 13494.2160645 17392.4345703 -4183.11376953
          12947.2905273 19845.4462891 -4108.1484375 12810.1074219 20024.9892578 -4102.06054688
          13306.7849121 20894.1972656 -4128.11523438 13179.201416 17819.9301758 -4162.81884766
          12562.4138184 14652.0483398 -4174.41552734 12677.734375 14790.0786133 -4181.1640625
          12724.6416016 14603.0458984 -4184.22949219 13944.8586426 13620.2524414 -4242.70947266
          14057.8530273 13489.3188477 -4241.99804688 13333.5864258 12543.3686523 -4187.92675781
          13314.699707 12708.6948242 -4193.56005859 12082.4553223 12809.8845215 -4127.97558594
          12086.6235352 13052.9321289 -4130.62304688 12272.8164063 12863.7768555 -4145.91503906
          13372.2958984 13791.8164063 -4225.13818359 13348.2666016 13606.2158203 -4219.05029297
          14118.7182617 12704.1318359 -4215.43115234 13879.473877 12765.3234863 -4211.36181641
          14064.6408691 12896.4489746 -4220.61621094 13504.234375 18124.5419922 -4165.02587891
          13355.3972168 18047.027832 -4162.44628906 14212.9775391 17701.5200195 -4194.17089844
          14120.8886719 17875.5024414 -4190.11669922 14291.7993164 17834.2075195 -4194.44580078
          14499.4155273 13491.953125 -4243.03710938 14564.5942383 13655.822998 -4243.93994141
          13792.5817871 18509.3271484 -4166.17382813 13968.7692871 18546.0634766 -4172.24414063
          13800.4978027 18321.4912109 -4169.89111328 14197.2490234 13412.6557617 -4240.46142578
          13091.2248535 17259.9155273 -4167.92285156 13730.9064941 20994.6123047 -4154.44287109
          13667.5385742 20756.0908203 -4146.3359375 12899.3371582 16673.0664063 -4164.1875
          12667.947998 16582.1655273 -4146.89453125 12752.9416504 16788.2832031 -4153.93408203
          12339.4729004 15708.6503906 -4130.14697266 12286.189209 15891.6850586 -4122.93994141
          12793.1933594 12057.064209 -4153.95800781 12079.2438965 12053.251709 -4112.80664063
          12592.6342773 13216.6442871 -4167.62353516 12738.9338379 13054.5351563 -4176.50048828
          14260.9404297 12563.8718262 -4211.54980469 14224.390625 12306.3925781 -4205.00097656
          14054.4584961 12515.0778809 -4208.49121094 14388.7104492 20932.8681641 -4197.29394531
          13813.4008789 20809.6328125 -4155.38378906 13939.5969238 20719.015625 -4162.09130859
          13795.5290527 20557.9960938 -4150.76464844 13106.878418 13382.4379883 -4200.49755859
          12959.5949707 13585.760498 -4196.08203125 13908.6647949 13407.3720703 -4237.05126953
          13572.2963867 13939.7802734 -4235.61035156 13343.9055176 13136.2744141 -4204.73583984
          13417.2563477 12946.4001465 -4205.03417969 12394.3410645 20146.4277344 -4083.62207031
          12336.7734375 19913.2880859 -4085.45361328 14614.6162109 17258.5805664 -4214.27197266
          14694.8652344 17424.8720703 -4215.61572266 14777.597168 17242.3217773 -4219.14794922
          14131.2705078 15531.1230469 -4227.62353516 14200.2827148 15690.7700195 -4226.67089844
          14303.7944336 15509.7910156 -4233.10986328 12974.4643555 15809.847168 -4185.61474609
          12891.3544922 15167.7451172 -4188.68017578 14865.8393555 13277.385498 -4225.43457031
          13052.9824219 15644.9389648 -4189.69140625 12812.7697754 15620.7910156 -4176.48388672
          12101.029541 13500.3818359 -4137.31396484 13486.8354492 12123.0507813 -4184.29589844
          13785.8635254 17930.6499023 -4178.921875 13864.5571289 17697.9814453 -4185.49707031
          13701.1467285 17778.1796875 -4180.89013672 12213.9765625 17271.6113281 -4101.41748047
          12296.5944824 17097.5048828 -4109.65673828 14300.5913086 18281.9941406 -4190.32373047
          14029.2644043 15751.0908203 -4223.328125 13459.1184082 15332.3227539 -4217.43017578
          12923.0249023 19150.0205078 -4113.42724609 13051.2414551 18893.0029297 -4128.88867188
          12829.7011719 19005.5908203 -4108.90087891 14931.8920898 12700.6467285 -4203.64941406
          14838.0048828 12519.3833008 -4199.55566406 13773.2600098 12564.689209 -4203.44726563
          13819.6013184 15471.9370117 -4225.75 12296.8378906 17470.9111328 -4105.09765625
          12050.8588867 13316.5402832 -4132.38037109 14385.0693359 13679.1708984 -4247.70996094
          14538.6933594 12074.2045898 -4191.74658203 13278.0297852 13386.2561035 -4211.76269531
          14705.3242188 12215.8193359 -4191.95751953 14852.828125 12348.6464844 -4192.35253906
          14684.6459961 12454.005127 -4201.91601563 12379.2214355 13846.6965332 -4158.04296875
          12333.3286133 13690.6657715 -4152.77880859 12253.0241699 13949.1271973 -4150.01757813
          14776.9736328 12674.5644531 -4207.24072266 13342.1169434 16945.5126953 -4183.84277344
          13190.4111328 16963.0244141 -4178.82080078 12578.4155273 16715.8549805 -4136.4453125
          13804.3085938 12159.6799316 -4195.97412109 12320.8898926 14102.2158203 -4156.22412109
          13519.0471191 14341.6108398 -4236.44091797 13321.4123535 17891.5229492 -4165.64990234
          13208.0637207 17134.0302734 -4176.70263672 13967.8166504 13961.8154297 -4250.59033203
          12126.2446289 12262.0795898 -4123.06103516 12325.5083008 12184.6782227 -4132.95214844
          13446.4797363 20618.8769531 -4132.37158203 14626.769043 12903.9641113 -4218.73339844
          14824.4892578 12870.0478516 -4213.46826172 13644.1396484 18217.1943359 -4166.43847656
          13642.2421875 18029.3154297 -4170.74169922 14451.9033203 12897.767334 -4221.48388672
          14502.4584961 21037.3876953 -4206.87988281 14328.4599609 21182.3779297 -4198.15917969
          14551.0200195 12659.8000488 -4210.97119141 14233.3232422 12883.4208984 -4221.67578125
          14346.8813477 12757.8962402 -4215.95605469 12127.4699707 15814.3017578 -4105.45751953
          14404.5332031 12616.2316895 -4211.59570313 12632.7553711 17412.5751953 -4134.27197266
          12570.4187012 17581.3178711 -4130.19287109 13926.519043 12611.8964844 -4208.00048828
          12275.0974121 19581.8398438 -4084.96533203 12468.2810059 19657.5673828 -4092.76660156
          12398.7246094 19415.3837891 -4093.66650391 14694.4946289 18804.0615234 -4203.00683594
          12957.9074707 14684.5400391 -4199.65283203 12197.4731445 17616.2133789 -4098.27636719
          12092.6013184 17777.9511719 -4091.23583984 13103.4362793 18177.7607422 -4146.40576172
          13157.7583008 18327.3203125 -4147.57617188 13312.3791504 18226.5878906 -4157.06494141
          12736.0947266 20226.7314453 -4098.87011719 12968.6420898 20160.6650391 -4108.79443359
          12553.5222168 20236.6015625 -4090.27075195 12601.5793457 20025.5849609 -4093.48535156
          14323.8432617 13508.8110352 -4243.92431641 13313.0666504 20487.9228516 -4122.81933594
          13421.2382813 20326.4482422 -4130.76171875 13313.0695801 15193.9423828 -4211.49023438
          13112.2658691 15206.1826172 -4202.39453125 13589.0620117 20223.2099609 -4138.66357422
          13608.0297852 20414.8583984 -4141.11669922 13798.5588379 20352.5009766 -4149.69824219
          14509.0102539 20679.5859375 -4199.51806641 13811.4318848 14031.1804199 -4246.86230469
          13701.5681152 14137.1655273 -4242.88867188 13550.128418 14156.0092773 -4237.13769531
          13826.1772461 14225.1987305 -4247.71484375 12664.0449219 12457.5200195 -4161.04931641
          12762.5881348 12340.6677246 -4161.14013672 13945.6682129 14119.6933594 -4250.02636719
          13971.7160645 14354.2348633 -4249.82275391 14358.612793 16056.9628906 -4224.36035156
          14193.0083008 16274.0820313 -4217.14306641 14372.2392578 16214.0454102 -4222.94580078
          12513.7412109 16863.4052734 -4130.13769531 12488.0195313 17113.7641602 -4127.3671875
          12002.2054443 20577.8681641 -4050.6015625 13035.7460938 19705.2216797 -4114.97558594
          12870.1621094 19673.1445313 -4108.48046875 12629.1513672 13432.1933594 -4170.94091797
          13835.5710449 14950.6381836 -4236.35351563 13348.6516113 14995.8540039 -4218.61621094
          13275.4304199 17435.7890625 -4170.82666016 13513.7868652 15019.8935547 -4225.94628906
          12639.6437988 14453.1103516 -4181.16943359 13640.9816895 20037.7998047 -4141.27294922
          13426.7866211 20119.6904297 -4131.10253906 14025.6708984 19995.0185547 -4161.08886719
          12934.1791992 16056.2358398 -4176.71533203 12185.2390137 15646.9575195 -4119.00195313
          13151.767334 12790.8376465 -4187.12792969 12381.2946777 16014.9277344 -4127.09765625
          14942.190918 15010.0922852 -4236.46630859 13965.942627 18260.8496094 -4177.53759766
          14134.5385742 18050.8061523 -4187.50048828 13896.6638184 18098.6611328 -4177.10693359
          14748.1069336 19485.0986328 -4202.33740234 13121.1157227 14781.9106445 -4208.31787109
          12866.0534668 14829.7871094 -4191.56298828 13148.6665039 18025.434082 -4154.02880859
          12662.3666992 18512.2939453 -4120.52294922 12595.5720215 18309.7363281 -4111.68212891
          12416.9052734 18459.2050781 -4102.3515625 14571.1020508 20372.6855469 -4197.90429688
          14650.7236328 18313.7705078 -4204.421875 14122.8041992 20670.0654297 -4173.10644531