<?xml version="1.0"?>
<VTKFile type="UnstructuredGrid" version="0.1" byte_order="LittleEndian" header_type="UInt32">
  <UnstructuredGrid>
    <Piece NumberOfPoints="268" NumberOfCells="468">
      <PointData>
      </PointData>
      <CellData>
        <DataArray type="Int32" Name="MaterialIDs" format="ascii" RangeMin="0" RangeMax="0">
          0 0 0 0 0 0
          0 0 0 0 0 0
          0 0 0 0 0 0
          0 0 0 0 0 0
          0 0 0 0 0 0
          0 0 0 0 0 0
          0 0 0 0 0 0
          0 0 0 0 0 0
          0 0 0 0 0 0
          0 0 0 0 0 0
          0 0 0 0 0 0
          0 0 0 0 0 0
          0 0 0 0 0 0
          0 0 0 0 0 0
          0 0 0 0 0 0
          0 0 0 0 0 0
          0 0 0 0 0 0
          0 0 0 0 0 0
          0 0 0 0 0 0
          0 0 0 0 0 0
          0 0 0 0 0 0
          0 0 0 0 0 0
          0 0 0 0 0 0
          0 0 0 0 0 0
          0 0 0 0 0 0
          0 0 0 0 0 0
          0 0 0 0 0 0
          0 0 0 0 0 0
          0 0 0 0 0 0
          0 0 0 0 0 0
          0 0 0 0 0 0
          0 0 0 0 0 0
          0 0 0 0 0 0
          0 0 0 0 0 0
          0 0 0 0 0 0
          0 0 0 0 0 0
          0 0 0 0 0 0
          0 0 0 0 0 0
          0 0 0 0 0 0
          0 0 0 0 0 0
          0 0 0 0 0 0
          0 0 0 0 0 0
          0 0 0 0 0 0
          0 0 0 0 0 0
          0 0 0 0 0 0
          0 0 0 0 0 0
          0 0 0 0 0 0
          0 0 0 0 0 0
          0 0 0 0 0 0
          0 0 0 0 0 0
          0 0 0 0 0 0
          0 0 0 0 0 0
          0 0 0 0 0 0
          0 0 0 0 0 0
          0 0 0 0 0 0
          0 0 0 0 0 0
          0 0 0 0 0 0
          0 0 0 0 0 0
          0 0 0 0 0 0
          0 0 0 0 0 0
          0 0 0 0 0 0
          0 0 0 0 0 0
          0 0 0 0 0 0
          0 0 0 0 0 0
          0 0 0 0 0 0
          0 0 0 0 0 0
          0 0 0 0 0 0
          0 0 0 0 0 0
          0 0 0 0 0 0
          0 0 0 0 0 0
          0 0 0 0 0 0
          0 0 0 0 0 0
          0 0 0 0 0 0
          0 0 0 0 0 0
          0 0 0 0 0 0
          0 0 0 0 0 0
          0 0 0 0 0 0
          0 0 0 0 0 0
        </DataArray>
      </CellData>
      <Points>
        <DataArray type="Float64" Name="Points" NumberOfComponents="3" format="ascii" RangeMin="17623.93273278604" RangeMax="24842.391137004935">
          10397.7945862 17583.2553711 -791.872497559 10222.0399017 17496.6518555 -501.334655762
          10287.5878296 17330.5825195 -704.561157227 11399.1595459 20187.4199219 -1286.00720215
          11448.6677246 19990.5332031 -1461.74658203 11596.8259277 20315.7265625 -1555.11669922
          10291.2122192 17765.6298828 -509.83380127 11914.3526611 17324.8134766 -3513.90942383
          11894.3175049 16979.4697266 -3646.39550781 12059.3991699 17364.3032227 -3736.15576172
          9955.96677017 16418.3349609 -461.583221436 10063.1260567 16328.9833984 -775.060424805
          10023.2700787 16687.7407227 -471.096252441 10873.6073608 18651.6064453 -1125.21484375
          10923.8595581 18977.7490234 -1057.4440918 10776.5652466 18839.2480469 -872.267333984
          11038.7878418 16828.3134766 -2300.99438477 10829.2294922 16830.0400391 -1948.44628906
          10876.890686 16453.8188477 -2224.23657227 10756.9759521 14941.9345703 -2752.67333984
          10616.0576782 14546.96875 -2705.64208984 10844.0639648 14787.2407227 -2961.01538086
          12258.4125977 18920.2910156 -3322.62109375 12160.5004883 19068.8193359 -3088.38891602
          12124.612793 18648.3759766 -3229.37475586 10546.257019 17915.8520508 -902.511474609
          11673.0644531 16185.5585938 -3659.80249023 11723.2711182 16684.4013672 -3504.41088867
          11519.8868408 16235.7446289 -3383.35986328 11025.3198242 19804.2480469 -840.871704102
          11107.6140137 19580.6875 -1084.05078125 11227.0251465 19923.7431641 -1122.74816895
          10361.4311829 18034.3603516 -517.763793945 12933.2880859 20467.6435547 -3710.28320313
          12768.0341797 20325.8095703 -3502.43041992 12756.1655273 19987.1689453 -3643.86132813
          10974.8262939 15027.7392578 -3061.19042969 10154.9441528 17227.2006836 -491.709350586
          10311.6347351 17100.9086914 -862.228881836 12793.8413086 19516.7099609 -3930.79663086
          12910.7028809 19913.5078125 -3936.47265625 12729.9472656 19706.0087891 -3734.08886719
          10561.6333008 18278.4335938 -761.485900879 10779.3435059 15331.9667969 -2610.97314453
          10586.8427734 14872.6152344 -2513.99023438 12387.2675781 19518.4365234 -3252.22143555
          12395.0617676 19187.4257813 -3423.04150391 12593.3203125 19474.0527344 -3616.9074707
          10506.3293762 18570.7207031 -531.19140625 12294.2102051 18157.6049805 -3746.95043945
          12196.3120117 18276.6796875 -3526.77954102 12152.8137207 17768.8222656 -3697.63720703
          10670.015625 16407.6831055 -1909.22998047 11115.7596436 15296.2807617 -3165.18359375
          11200.6357422 14937.8623047 -3467.10864258 11299.3894043 15202.1445313 -3507.0715332
          10692.6499023 18536.2646484 -869.556030273 11144.715332 20147.3232422 -879.57623291
          11506.4533691 15152.4799805 -3869.41381836 11439.4083252 15392.0454102 -3648.37939453
          11352.4613037 14985.5292969 -3693.31469727 12208.3642578 17533.0522461 -3903.06054688
          12090.9265137 17136.4189453 -3897.70239258 10748.732666 18323.0751953 -1065.66235352
          11785.8048096 18542.4589844 -2714.25805664 11968.3563232 18482.21875 -3048.05639648
          11979.2822266 18759.1210938 -2933.86621094 10813.638855 18115.7470703 -1274.93530273
          11729.9309082 20946.1748047 -1478.32788086 11555.4403076 20890.2216797 -1214.15979004
          11624.284668 20758.6103516 -1391.19763184 10481.4301147 16140.1118164 -1746.60522461
          10691.8219604 16078.0610352 -2117.20410156 11661.2740479 19865.6201172 -1875.92822266
          11588.3387451 20027.5927734 -1677.38317871 11561.557251 19599.3359375 -1835.67700195
          10876.24646 19877.7304688 -555.406005859 10970.3990479 20204.0273438 -560.540222168
          10117.0823822 14689.984375 -1844.55541992 10282.9858093 15186.3623047 -1897.11608887
          10083.9805756 15097.6665039 -1614.47021484 10180.875351 16829.5087891 -738.058044434
          10088.3322372 16957.6376953 -481.821411133 10965.7701416 18339.5283203 -1429.60351563
          10948.1119385 14451.8095703 -3279.99145508 11112.8763428 14404.6210938 -3567.77246094
          11025.7021484 14779.0664063 -3256.03100586 11811.1362305 21138.4599609 -1522.42700195
          11765.0307617 21153.0986328 -1438.70849609 10523.4237671 15720.956543 -2030.8572998
          10735.8907471 15689.9370117 -2376.56860352 11275.1126709 14358.2133789 -3856.74902344
          11231.8631592 14687.1010742 -3632.17480469 10898.9343262 17889.9208984 -1530.83398438
          10505.1661072 16476.2080078 -1589.68798828 10665.5377197 16676.4243164 -1752.578125
          10890.6208496 15207.0200195 -2844.88989258 11046.7043457 18150.0942383 -1658.31323242
          9823.82820129 15715.9516602 -783.03314209 9631.09210205 15551.5727539 -485.741333008
          9725.75268555 15414.8056641 -787.608276367 12563.9541016 19809.7255859 -3408.02880859
          11361.795166 19719.2802734 -1444.83105469 11628.1304932 17450.3647461 -2977.21850586
          11823.0496826 17550.1987305 -3253.5859375 11734.9433594 17905.7680664 -2935.27075195
          11201.5063477 18479.8066406 -1762.95690918 11391.7380371 19389.2070313 -1651.13659668
          11484.8774414 19255.7666016 -1870.45751953 9525.5368042 15261.5478516 -492.232513428
          11254.8464355 18277.3613281 -1950.00732422 11148.9584961 18002.6704102 -1903.60632324
          11973.3320313 16739.8295898 -3892.43041992 9600.49057007 15136.293457 -713.655090332
          9896.80537415 15987.1196289 -695.127746582 9851.71229553 16127.8095703 -467.335876465
          9742.60928345 15839.2202148 -475.852264404 11339.4523926 19059.8095703 -1719.56628418
          11314.8710938 18043.4648438 -2163.98535156 10900.0905151 19264.0253906 -883.348022461
          11047.4470215 19219.5722656 -1152.72351074 11391.2175293 18505.2080078 -2070.71386719
          11820.6040039 18271.8759766 -2902.1394043 9745.07608032 15150.003418 -986.610778809
          9541.98880005 14853.8574219 -758.776245117 11643.3314209 18158.9672852 -2660.16357422
          11482.7193604 18265.4140625 -2339.47167969 11440.9916992 17944.5644531 -2424.48413086
          12639.3022461 20480.1201172 -3214.5378418 12590.6616211 20147.0039063 -3291.96044922
          11399.2318115 18818.3300781 -1934.71716309 9953.61723709 14736.7719727 -1556.15612793
          9909.37190247 15117.2426758 -1310.03759766 11169.5095215 18776.8154297 -1567.80944824
          11247.6787109 16856.5673828 -2634.21850586 11322.1556396 16580.2763672 -2892.40063477
          11450.8034668 16956.3295898 -2922.02319336 11498.1955566 15807.7924805 -3550.39331055
          12416.7370605 19938.0390625 -3101.55322266 11017.4087524 18630.59375 -1379.6229248
          11824.2073975 16571.1293945 -3725.76904297 11855.9604492 16343.1777344 -3887.03588867
          11735.3594971 20761.8886719 -1574.66943359 11761.0932617 20447.9443359 -1766.32128906
          11039.6542969 18910.8271484 -1285.23144531 11965.5737305 18211.3837891 -3173.24389648
          12008.2351074 17816.2158203 -3434.04956055 10475.0422363 17099.6674805 -1173.97521973
          10534.7241211 17475.4667969 -1092.66113281 12233.8232422 20204.3261719 -2669.98706055
          12108.9104004 20415.2373047 -2361.54907227 12080.6738281 20146.4248047 -2442.17871094
          11490.3721924 17701.4570313 -2625.3190918 12203.2553711 19492.8867188 -2957.53662109
          10782.3733521 14499.2998047 -2992.67724609 11857.241333 21123.8212891 -1606.14599609
          10782.5723877 19551.3007813 -550.008483887 10689.593689 19224.6806641 -544.228820801
          10915.7055054 19536.7841797 -781.913024902 11627.2827148 18582.8466797 -2429.73168945
          11622.258667 15549.5756836 -3875.671875 11883.3035889 17900.7709961 -3185.22094727
          10223.3960266 16610.8583984 -954.342712402 10597.2886963 18897.8779297 -538.078979492
          10737.2484741 17453.0844727 -1465.22570801 10701.8309937 17818.4858398 -1222.87011719
          11950.7590332 19069.5175781 -2737.98779297 11921.041748 20731.0957031 -1898.62084961
          12041.6606445 21065.265625 -1941.02197266 11949.4505615 21094.5439453 -1773.58410645
          9466.90612793 15077.7050781 -492.161956787 12442.9016113 18326.4160156 -3913.96386719
          12351.0012207 18479.828125 -3687.47949219 12504.3173828 19039.2001953 -3675.91235352
          12676.9355469 19119.9238281 -3925.14453125 11220.1593018 20492.0664063 -843.369506836
          9857.75093079 15470.3286133 -1035.33984375 9942.79468536 15743.347168 -1039.06030273
          9993.56499577 15584.3295898 -1242.97045898 12355.7788086 18759.5019531 -3561.80102539
          11219.0688477 19297.5410156 -1404.71789551 11064.9145508 20530.2226563 -565.474487305
          11542.8380127 20538.8554688 -1359.50744629 11159.6920166 20856.3447266 -570.264587402
          11754.9093018 16956.7197266 -3426.13256836 11516.2121582 16591.0092773 -3207.05834961
          11346.3591309 20890.2519531 -866.028747559 11359.3190918 21182.3779297 -748.966369629
          12325.6816406 17929.7207031 -3908.48510742 11254.7922363 21182.3779297 -574.87713623
          12028.2421875 19773.2255859 -2532.17163086 11927.7575684 19917.4833984 -2295.98657227
          11463.8677979 21182.3779297 -923.045593262 12559.9553223 18723.1591797 -3919.53344727
          11568.3496094 21182.3779297 -1097.15563965 11061.6322021 17598.8579102 -1952.63964844
          10907.5134888 17601.4589844 -1687.52355957 11738.8336182 15946.4550781 -3881.50585938
          11672.8175049 21182.3779297 -1271.27209473 11858.6187744 19455.0791016 -2400.39672852
          11748.8596191 19647.0039063 -2125.89550781 11625.7232666 19266.6035156 -2100.94995117
          11654.0877686 17061.9135742 -3208.1496582 12020.9486084 19423.7177734 -2686.31323242
          11764.3862305 19067.2734375 -2427.65625 10527.4229126 16832.1728516 -1420.10717773
          10712.8235474 16974.9023438 -1669.66772461 10098.1549072 15858.8339844 -1274.66040039
          10328.3305969 15802.8066406 -1688.42907715 10309.7357788 16156.2314453 -1453.36157227
          10882.5736084 17255.0908203 -1817.81994629 10956.1572266 17088.4848633 -2028.83496094
          11105.7414551 17280.7460938 -2185.45849609 12093.7399902 19238.6416016 -2895.98046875
          10190.0006256 16270.7851563 -1134.83947754 10282.5821228 14642.5683594 -2131.97998047
          10449.3381348 14594.7631836 -2418.80517578 10336.5182495 14953.128418 -2083.48730469
          12133.8681641 21035.9892578 -2108.4609375 12021.4713135 20546.9785156 -2153.29760742
          11869.1818848 20324.140625 -2005.21484375 11807.6400146 20015.7109375 -2048.94628906
          10626.9498291 17145.9311523 -1426.64599609 11391.2381592 14755.2182617 -3862.83056641
          9410.25610352 14893.2539063 -490.991973877 10355.8382263 16569.7519531 -1252.29492188
          10193.539917 15358.1645508 -1680.7689209 10000 16000 -940
          12228.6628418 19930.2949219 -2791.68945313 9810.58123779 14777.5996094 -1292.90087891
          9673.94940186 14816.4492188 -1026.82458496 10360.8774109 16825.8349609 -1104.08984375
          11563.9871826 18832.1630859 -2204.59423828 11805.3404541 18832.5625 -2608.14233398
          12198.3422852 20685.3984375 -2382.29443359 11287.6544189 17421.1279297 -2422.36987305
          11274.4509277 17718.9472656 -2253.89208984 11385.9926758 17240.5317383 -2675.65551758
          11191.8319092 17096.5195313 -2422.4519043 11285.0720215 15442.6962891 -3372.49145508
          11178.6279297 15580.6069336 -3134.87231445 10635.265564 15383.2285156 -2361.24853516
          10505.4994812 15072.9213867 -2297.06811523 10345.5815125 15516.7827148 -1849.93823242
          10474.2575684 15372.2792969 -2115.61523438 12871.3215332 20801.8359375 -3448.06811523
          12779.1496582 20831.1025391 -3280.61279297 12594.7990723 20889.6367188 -2945.70507813
          12226.0671387 21006.7138672 -2275.90356445 12410.4396973 20948.1738281 -2610.80126953
          12441.7182617 20307.4648438 -2967.42041016 11957.6065674 20190.390625 -2216.11376953
          11323.5164795 20367.1640625 -1074.87207031 11091.4707031 16486.3725586 -2559.16088867
          11337.1588135 16247.7895508 -3077.44384766 11316.067627 15799.8061523 -3255.85791016
          11025.0297852 15471.309082 -2938.02294922 10950.5706787 15761.0131836 -2683.5534668
          11169.8226318 15915.4008789 -2963.31958008 11083.6342773 16148.9882813 -2711.8984375
          10893.7295532 16106.328125 -2425.94726563 10106.474144 15506.8535156 -1473.23376465
          13027.5314941 20310.3154297 -3942.16699219 12459.3693848 20609.0009766 -2853.46166992
          13144.3273926 20707.1318359 -3947.87866211 12963.489502 20772.5722656 -3615.52563477
          12291.2553711 20501.6923828 -2624.36352539 11401.220459 20667.0722656 -1062.93054199
          <InformationKey name="L2_NORM_RANGE" location="vtkDataArray" length="2">
            <Value index="0">
              17623.932733
            </Value>
            <Value index="1">
              24842.391137
            </Value>
          </InformationKey>
        </DataArray>
      </Points>
      <Cells>
        <DataArray type="Int64" Name="connectivity" format="ascii" RangeMin="0" RangeMax="267">
          0 1 2 3 4 5
          0 6 1 7 8 9
          10 11 12 13 14 15
          16 17 18 19 20 21
          22 23 24 6 0 25
          26 27 28 29 30 31
          32 6 25 33 34 35
          36 19 21 2 37 38
          39 40 41 32 25 42
          43 44 19 45 46 47
          32 42 48 49 50 51
          17 52 18 53 54 55
          42 56 48 29 31 57
          58 59 60 61 9 62
          42 63 56 42 25 63
          64 65 66 63 25 67
          68 69 70 71 72 52
          73 74 75 76 29 77
          78 79 80 81 37 82
          67 83 63 84 85 86
          68 87 88 72 89 90
          85 91 92 93 83 67
          94 52 95 96 19 36
          83 93 97 98 99 100
          41 101 47 102 74 4
          103 104 105 97 106 83
          107 108 75 99 109 100
          97 110 106 111 110 97
          8 112 62 113 100 109
          114 115 116 108 107 117
          118 110 111 119 14 120
          110 118 121 64 122 65
          106 110 121 114 116 98
          123 113 124 125 126 127
          128 129 34 130 106 121
          131 80 132 106 130 133
          134 135 136 137 26 28
          101 129 138 106 133 139
          140 141 112 139 83 106
          139 13 83 142 5 143
          144 13 139 50 145 146
          147 148 38 14 13 144
          149 150 151 103 105 152
          37 81 38 13 15 56
          45 138 153 56 63 13
          86 21 154 68 142 155
          156 157 158 159 121 126
          59 58 160 13 63 83
          145 161 146 81 11 162
          41 35 101 66 24 23
          41 40 35 163 56 15
          45 47 101 48 56 163
          164 165 148 163 15 157
          23 166 66 157 15 119
          119 158 157 167 168 169
          115 11 10 158 119 30
          30 29 158 124 113 170
          49 171 172 29 57 77
          47 173 174 29 76 158
          165 25 148 68 70 142
          76 156 158 167 169 142
          77 57 175 176 100 123
          177 176 178 50 172 179
          140 27 26 120 144 180
          77 175 181 70 182 142
          175 183 181 184 185 27
          183 175 186 93 165 164
          183 186 187 153 23 45
          188 49 51 187 189 183
          1 37 2 190 151 191
          47 174 39 46 23 22
          187 186 192 54 92 60
          179 193 173 186 194 192
          9 61 51 195 111 196
          171 49 188 69 194 186
          141 26 197 197 26 137
          69 198 194 8 27 140
          17 95 52 198 69 68
          88 198 68 47 46 173
          155 87 68 9 8 62
          199 200 201 193 174 173
          70 69 182 190 191 199
          182 5 142 3 5 182
          185 184 202 203 199 204
          4 3 31 31 102 4
          205 95 206 160 137 59
          30 102 31 207 208 209
          140 26 141 86 36 21
          179 24 50 102 30 180
          101 35 129 210 211 212
          180 107 102 213 153 203
          201 108 130 107 180 117
          11 214 162 193 172 171
          215 216 217 75 102 107
          137 160 197 140 112 8
          102 75 74 4 74 5
          143 5 74 167 142 143
          164 196 93 218 168 167
          202 184 7 172 50 49
          167 219 218 167 220 219
          167 143 220 25 165 67
          220 143 74 8 184 27
          51 146 7 202 104 103
          74 221 220 104 202 7
          205 206 222 74 73 221
          91 223 92 124 170 224
          75 200 73 201 200 75
          195 196 210 7 146 104
          225 94 205 98 176 177
          94 209 71 80 79 226
          199 191 200 11 114 227
          53 36 54 190 228 151
          190 203 228 190 199 203
          100 113 123 229 132 230
          166 203 204 213 203 166
          213 23 153 170 113 109
          23 213 166 147 231 205
          229 131 132 66 65 24
          9 51 7 138 45 101
          64 125 122 204 232 159
          61 188 51 159 125 64
          166 233 66 126 125 159
          152 125 127 152 105 125
          51 50 146 218 219 234
          22 24 179 45 23 46
          38 81 231 41 47 39
          172 193 179 7 184 8
          71 209 208 235 236 212
          58 60 223 237 235 238
          223 60 92 16 238 212
          85 92 86 232 121 159
          154 84 86 86 54 36
          54 60 55 54 86 92
          53 239 240 209 94 225
          96 36 53 241 242 43
          231 147 38 208 226 243
          19 96 43 98 227 114
          118 127 126 44 43 242
          210 222 206 17 210 206
          216 44 242 216 20 44
          205 231 225 20 19 44
          52 94 71 134 237 238
          20 154 21 235 152 236
          242 217 216 71 208 89
          217 242 244 72 71 89
          244 79 217 111 236 118
          79 244 243 178 207 177
          226 79 243 159 64 233
          79 78 217 25 0 148
          118 126 121 215 217 78
          94 95 205 80 131 78
          230 132 123 123 124 230
          33 245 34 99 98 116
          15 14 119 115 114 11
          128 246 247 11 81 12
          81 162 231 105 145 122
          82 12 81 34 245 128
          38 148 2 248 234 249
          228 138 250 148 147 222
          150 219 251 148 222 164
          252 175 57 165 93 67
          148 0 2 196 164 210
          195 236 111 212 238 235
          195 212 236 212 195 210
          17 211 210 17 16 211
          16 18 253 133 117 180
          253 134 16 134 253 135
          136 237 134 136 103 237
          202 103 136 202 136 185
          135 185 136 185 135 254
          254 28 185 28 254 255
          137 28 255 137 255 239
          137 239 59 55 59 239
          60 59 55 53 55 239
          53 240 256 31 3 252
          256 96 53 96 256 43
          256 257 43 258 257 256
          257 258 259 259 260 257
          259 253 260 135 253 259
          254 135 259 259 258 254
          145 65 122 254 258 255
          255 258 240 239 255 240
          258 256 240 253 18 260
          232 130 121 260 18 72
          260 72 90 257 260 90
          257 90 43 90 241 43
          244 241 90 244 242 241
          89 244 90 244 89 243
          208 243 89 225 162 214
          208 261 226 261 208 207
          18 52 72 261 207 178
          103 152 237 261 178 132
          80 261 132 261 80 226
          132 178 176 176 123 132
          98 100 176 177 227 98
          227 177 207 227 207 214
          11 227 214 162 225 231
          147 205 222 209 225 214
          209 214 207 17 206 95
          164 222 210 27 185 28
          235 237 152 238 16 134
          16 212 211 145 50 24
          152 127 236 118 236 127
          130 232 201 108 201 75
          130 108 117 133 130 117
          133 180 144 133 144 139
          144 120 14 30 119 120
          120 180 30 204 201 232
          199 201 204 204 159 233
          166 204 233 66 233 64
          196 111 93 111 97 93
          46 179 173 22 179 46
          40 262 35 262 33 35
          263 250 128 264 33 262
          264 265 33 245 33 265
          35 34 129 250 129 128
          129 250 138 153 138 228
          228 203 153 228 250 149
          151 228 149 150 149 266
          234 150 266 150 234 219
          150 251 151 251 191 151
          221 191 251 200 191 221
          221 73 200 221 251 220
          251 219 220 218 234 248
          234 266 249 266 263 249
          266 250 263 266 149 250
          263 128 247 249 263 247
          245 246 128 145 105 161
          125 105 122 24 65 145
          105 104 161 161 104 146
          169 155 142 57 31 252
          175 252 267 175 267 186
          186 267 69 267 182 69
          267 252 182 252 3 182
        </DataArray>
        <DataArray type="Int64" Name="offsets" format="ascii" RangeMin="3" RangeMax="1404">
          3 6 9 12 15 18
          21 24 27 30 33 36
          39 42 45 48 51 54
          57 60 63 66 69 72
          75 78 81 84 87 90
          93 96 99 102 105 108
          111 114 117 120 123 126
          129 132 135 138 141 144
          147 150 153 156 159 162
          165 168 171 174 177 180
          183 186 189 192 195 198
          201 204 207 210 213 216
          219 222 225 228 231 234
          237 240 243 246 249 252
          255 258 261 264 267 270
          273 276 279 282 285 288
          291 294 297 300 303 306
          309 312 315 318 321 324
          327 330 333 336 339 342
          345 348 351 354 357 360
          363 366 369 372 375 378
          381 384 387 390 393 396
          399 402 405 408 411 414
          417 420 423 426 429 432
          435 438 441 444 447 450
          453 456 459 462 465 468
          471 474 477 480 483 486
          489 492 495 498 501 504
          507 510 513 516 519 522
          525 528 531 534 537 540
          543 546 549 552 555 558
          561 564 567 570 573 576
          579 582 585 588 591 594
          597 600 603 606 609 612
          615 618 621 624 627 630
          633 636 639 642 645 648
          651 654 657 660 663 666
          669 672 675 678 681 684
          687 690 693 696 699 702
          705 708 711 714 717 720
          723 726 729 732 735 738
          741 744 747 750 753 756
          759 762 765 768 771 774
          777 780 783 786 789 792
          795 798 801 804 807 810
          813 816 819 822 825 828
          831 834 837 840 843 846
          849 852 855 858 861 864
          867 870 873 876 879 882
          885 888 891 894 897 900
          903 906 909 912 915 918
          921 924 927 930 933 936
          939 942 945 948 951 954
          957 960 963 966 969 972
          975 978 981 984 987 990
          993 996 999 1002 1005 1008
          1011 1014 1017 1020 1023 1026
          1029 1032 1035 1038 1041 1044
          1047 1050 1053 1056 1059 1062
          1065 1068 1071 1074 1077 1080
          1083 1086 1089 1092 1095 1098
          1101 1104 1107 1110 1113 1116
          1119 1122 1125 1128 1131 1134
          1137 1140 1143 1146 1149 1152
          1155 1158 1161 1164 1167 1170
          1173 1176 1179 1182 1185 1188
          1191 1194 1197 1200 1203 1206
          1209 1212 1215 1218 1221 1224
          1227 1230 1233 1236 1239 1242
          1245 1248 1251 1254 1257 1260
          1263 1266 1269 1272 1275 1278
          1281 1284 1287 1290 1293 1296
          1299 1302 1305 1308 1311 1314
          1317 1320 1323 1326 1329 1332
          1335 1338 1341 1344 1347 1350
          1353 1356 1359 1362 1365 1368
          1371 1374 1377 1380 1383 1386
          1389 1392 1395 1398 1401 1404
        </DataArray>
        <DataArray type="UInt8" Name="types" format="ascii" RangeMin="5" RangeMax="5">
          5 5 5 5 5 5
          5 5 5 5 5 5
          5 5 5 5 5 5
          5 5 5 5 5 5
          5 5 5 5 5 5
          5 5 5 5 5 5
          5 5 5 5 5 5
          5 5 5 5 5 5
          5 5 5 5 5 5
          5 5 5 5 5 5
          5 5 5 5 5 5
          5 5 5 5 5 5
          5 5 5 5 5 5
          5 5 5 5 5 5
          5 5 5 5 5 5
          5 5 5 5 5 5
          5 5 5 5 5 5
          5 5 5 5 5 5
          5 5 5 5 5 5
          5 5 5 5 5 5
          5 5 5 5 5 5
          5 5 5 5 5 5
          5 5 5 5 5 5
          5 5 5 5 5 5
          5 5 5 5 5 5
          5 5 5 5 5 5
          5 5 5 5 5 5
          5 5 5 5 5 5
          5 5 5 5 5 5
          5 5 5 5 5 5
          5 5 5 5 5 5
          5 5 5 5 5 5
          5 5 5 5 5 5
          5 5 5 5 5 5
          5 5 5 5 5 5
          5 5 5 5 5 5
          5 5 5 5 5 5
          5 5 5 5 5 5
          5 5 5 5 5 5
          5 5 5 5 5 5
          5 5 5 5 5 5
          5 5 5 5 5 5
          5 5 5 5 5 5
          5 5 5 5 5 5
          5 5 5 5 5 5
          5 5 5 5 5 5
          5 5 5 5 5 5
          5 5 5 5 5 5
          5 5 5 5 5 5
          5 5 5 5 5 5
          5 5 5 5 5 5
          5 5 5 5 5 5
          5 5 5 5 5 5
          5 5 5 5 5 5
          5 5 5 5 5 5
          5 5 5 5 5 5
          5 5 5 5 5 5
          5 5 5 5 5 5
          5 5 5 5 5 5
          5 5 5 5 5 5
          5 5 5 5 5 5
          5 5 5 5 5 5
          5 5 5 5 5 5
          5 5 5 5 5 5
          5 5 5 5 5 5
          5 5 5 5 5 5
          5 5 5 5 5 5
          5 5 5 5 5 5
          5 5 5 5 5 5
          5 5 5 5 5 5
          5 5 5 5 5 5
          5 5 5 5 5 5
          5 5 5 5 5 5
          5 5 5 5 5 5
          5 5 5 5 5 5
          5 5 5 5 5 5
          5 5 5 5 5 5
          5 5 5 5 5 5
        </DataArray>
      </Cells>
    </Piece>
  </UnstructuredGrid>
</VTKFile>
