<?xml version="1.0"?>
<VTKFile type="UnstructuredGrid" version="0.1" byte_order="LittleEndian" header_type="UInt32">
  <UnstructuredGrid>
    <Piece NumberOfPoints="304" NumberOfCells="494">
      <PointData>
      </PointData>
      <CellData>
        <DataArray type="Float64" Name="RasterValues" format="ascii" RangeMin="0.00412416" RangeMax="1.55381">
          0.207887 0.207887 0.179092 0.179092 0.252836 0.252836
          0.421638 0.421638 0.542934 0.542934 0.433535 0.433535
          0.2451 0.2451 0.217284 0.217284 0.187314 0.187314
          0.221526 0.221526 0.223709 0.223709 0.251764 0.251764
          0.263102 0.263102 0.467832 0.467832 0.574858 0.574858
          0.78977 0.78977 0.699668 0.699668 0.0971626 0.0971626
          0.234559 0.234559 0.245497 0.245497 0.248093 0.248093
          0.2582 0.2582 0.271661 0.271661 0.249338 0.249338
          0.271399 0.271399 0.281384 0.281384 0.482887 0.482887
          0.560579 0.560579 0.725345 0.725345 0.910031 0.910031
          0.91955 0.91955 0.862906 0.862906 0.267263 0.267263
          0.265877 0.265877 0.272211 0.272211 0.275156 0.275156
          0.281034 0.281034 0.223915 0.223915 0.249102 0.249102
          0.329729 0.329729 0.510289 0.510289 0.640901 0.640901
          0.675608 0.675608 0.736848 0.736848 0.863757 0.863757
          0.310075 0.310075 0.215466 0.215466 0.237713 0.237713
          0.262868 0.262868 0.272448 0.272448 0.327593 0.327593
          0.452486 0.452486 0.549391 0.549391 0.613067 0.613067
          0.780615 0.780615 0.723614 0.723614 0.249436 0.249436
          0.324415 0.324415 0.326352 0.326352 0.307789 0.307789
          0.312066 0.312066 0.329274 0.329274 0.328247 0.328247
          0.525914 0.525914 0.654017 0.654017 0.684731 0.684731
          0.820565 0.820565 0.78975 0.78975 0.501525 0.501525
          0.346491 0.346491 0.330133 0.330133 0.356685 0.356685
          0.322865 0.322865 0.438795 0.438795 0.446544 0.446544
          0.468761 0.468761 0.592127 0.592127 0.808535 0.808535
          0.76909 0.76909 0.781133 0.781133 0.873512 0.873512
          0.566755 0.566755 0.529521 0.529521 0.488422 0.488422
          0.518012 0.518012 0.528334 0.528334 0.654361 0.654361
          0.571106 0.571106 0.730051 0.730051 0.600737 0.600737
          0.755315 0.755315 0.798558 0.798558 0.965605 0.965605
          0.793785 0.793785 0.627251 0.627251 0.576534 0.576534
          0.583174 0.583174 0.497044 0.497044 0.613724 0.613724
          0.680201 0.680201 0.757908 0.757908 0.773412 0.773412
          0.86869 0.86869 1.0187 1.0187 0.759494 0.759494
          0.703749 0.703749 0.574517 0.574517 0.481171 0.481171
          0.654021 0.654021 0.643005 0.643005 0.730509 0.730509
          0.969632 0.969632 1.0731 1.0731 1.01532 1.01532
          0.847988 0.847988 0.630626 0.630626 0.476187 0.476187
          0.644359 0.644359 0.751496 0.751496 0.863375 0.863375
          1.30021 1.30021 1.39203 1.39203 1.1453 1.1453
          1.12848 1.12848 0.744758 0.744758 0.942645 0.942645
          0.965042 0.965042 0.961956 0.961956 0.883945 0.883945
          1.42554 1.42554 1.37777 1.37777 1.32678 1.32678
          1.20563 1.20563 1.16965 1.16965 0.879848 0.879848
          1.1731 1.1731 1.0744 1.0744 1.05015 1.05015
          0.86007 0.86007 1.55381 1.55381 1.13896 1.13896
          1.02301 1.02301 0.943431 0.943431 0.772338 0.772338
          0.765706 0.765706 0.865751 0.865751 1.01871 1.01871
          1.02291 1.02291 0.777576 0.777576 1.14035 1.14035
          1.19471 1.19471 1.15213 1.15213 0.992313 0.992313
          0.590195 0.590195 0.311297 0.311297 0.665625 0.665625
          0.762916 0.762916 0.83773 0.83773 0.900596 0.900596
          1.00893 1.00893 1.14414 1.14414 0.875376 0.875376
          0.934116 0.934116 0.854642 0.854642 0.571248 0.571248
          0.476106 0.476106 0.735272 0.735272 0.634981 0.634981
          0.855457 0.855457 0.856744 0.856744 0.870473 0.870473
          0.762006 0.762006 0.353641 0.353641 0.654938 0.654938
          0.731371 0.731371 0.672451 0.672451 0.648333 0.648333
          0.661376 0.661376 0.568623 0.568623 0.427741 0.427741
          0.680055 0.680055 0.368447 0.368447 0.341773 0.341773
          0.127693 0.127693 0.267164 0.267164 0.217903 0.217903
          0.196075 0.196075 0.326958 0.326958 0.215665 0.215665
          0.290324 0.290324 0.106366 0.106366 0.344153 0.344153
          0.127758 0.127758 0.228249 0.228249 0.531366 0.531366
          0.310657 0.310657 0.0846826 0.0846826 0.0615325 0.0615325
          0.227723 0.227723 0.2881 0.2881 0.46179 0.46179
          0.250051 0.250051 0.291854 0.291854 0.177655 0.177655
          0.0290024 0.0290024 0.0848081 0.0848081 0.209032 0.209032
          0.5281 0.5281 0.452946 0.452946 0.244289 0.244289
          0.168001 0.168001 0.0355267 0.0355267 0.0682999 0.0682999
          0.157352 0.157352 0.613509 0.613509 0.486982 0.486982
          0.409182 0.409182 0.269322 0.269322 0.102167 0.102167
          0.0549069 0.0549069 0.417021 0.417021 0.30342 0.30342
          0.450058 0.450058 0.562256 0.562256 0.335424 0.335424
          0.169476 0.169476 0.0461728 0.0461728 0.103623 0.103623
          0.298092 0.298092 0.242118 0.242118 0.315056 0.315056
          0.167006 0.167006 0.106489 0.106489 0.0686347 0.0686347
          0.0917786 0.0917786 0.356061 0.356061 0.358996 0.358996
          0.158477 0.158477 0.0502222 0.0502222 0.0128824 0.0128824
          0.0171027 0.0171027 0.100403 0.100403 0.149765 0.149765
          0.0855238 0.0855238 0.0713767 0.0713767 0.00412416 0.00412416
          0.00656762 0.00656762
        </DataArray>
        <DataArray type="Float64" Name="SM_L01" format="ascii" RangeMin="0.20401580849058887" RangeMax="0.8090521843143702">
          0.7920746714032157 0.7920746714032157 0.734400859785163 0.734400859785163 0.6675524065622062 0.6675524065622062
          0.6084805243302921 0.6084805243302921 0.5550853988913795 0.5550853988913795 0.48786391114903765 0.48786391114903765
          0.7761876640608619 0.7761876640608619 0.7665878107520746 0.7665878107520746 0.7120400955430178 0.7120400955430178
          0.7132593613075157 0.7132593613075157 0.7585009483376836 0.7585009483376836 0.7212644357270467 0.7212644357270467
          0.6839561687747037 0.6839561687747037 0.5529577722085263 0.5529577722085263 0.5535776626843221 0.5535776626843221
          0.5329377449995335 0.5329377449995335 0.3758854481992047 0.3758854481992047 0.25779922596621857 0.25779922596621857
          0.7947783487106855 0.7947783487106855 0.795647145741555 0.795647145741555 0.7983916282737406 0.7983916282737406
          0.7492002629110223 0.7492002629110223 0.7559389948593814 0.7559389948593814 0.7124383589503799 0.7124383589503799
          0.5796872432093397 0.5796872432093397 0.5815592022338563 0.5815592022338563 0.5021073770930916 0.5021073770930916
          0.619252216202969 0.619252216202969 0.5278426006987403 0.5278426006987403 0.4151684795695734 0.4151684795695734
          0.5491724098786147 0.5491724098786147 0.6652121606151599 0.6652121606151599 0.7948290522217664 0.7948290522217664
          0.8090521843143702 0.8090521843143702 0.7907798736630286 0.7907798736630286 0.7149370369822571 0.7149370369822571
          0.7210163873639032 0.7210163873639032 0.5957808325254383 0.5957808325254383 0.5747638591562497 0.5747638591562497
          0.5223943165015105 0.5223943165015105 0.5830205329950319 0.5830205329950319 0.6121044861186774 0.6121044861186774
          0.5392582632688803 0.5392582632688803 0.5175400982224959 0.5175400982224959 0.5103500330592384 0.5103500330592384
          0.7784762187572015 0.7784762187572015 0.701087699262224 0.701087699262224 0.668616451025357 0.668616451025357
          0.5614287868734777 0.5614287868734777 0.5273251043764698 0.5273251043764698 0.5489362978125336 0.5489362978125336
          0.5121192756623745 0.5121192756623745 0.4738161668655993 0.4738161668655993 0.6119837283059418 0.6119837283059418
          0.5242139620453247 0.5242139620453247 0.47161307936666014 0.47161307936666014 0.7711468804351371 0.7711468804351371
          0.7430329762782817 0.7430329762782817 0.6574498142405217 0.6574498142405217 0.6054040171343011 0.6054040171343011
          0.6197015907789162 0.6197015907789162 0.493196104906719 0.493196104906719 0.5255828659683871 0.5255828659683871
          0.373342119468599 0.373342119468599 0.4997652734730837 0.4997652734730837 0.5287690826613234 0.5287690826613234
          0.46677954407457706 0.46677954407457706 0.4715537644668075 0.4715537644668075 0.7323368953110306 0.7323368953110306
          0.680475311559523 0.680475311559523 0.6181670067212457 0.6181670067212457 0.5179653726248976 0.5179653726248976
          0.5998988079803557 0.5998988079803557 0.3635611865334358 0.3635611865334358 0.4266131013841132 0.4266131013841132
          0.38078446562705653 0.38078446562705653 0.4907209061556932 0.4907209061556932 0.48681404036424714 0.48681404036424714
          0.5037793831436748 0.5037793831436748 0.5164491808104331 0.5164491808104331 0.7037179221807058 0.7037179221807058
          0.6675375517437027 0.6675375517437027 0.657742607117343 0.657742607117343 0.6710571363735519 0.6710571363735519
          0.5478168167959055 0.5478168167959055 0.38995739708100735 0.38995739708100735 0.4347129989448348 0.4347129989448348
          0.4682147853957696 0.4682147853957696 0.48016810258303727 0.48016810258303727 0.5008898898863181 0.5008898898863181
          0.494636418832377 0.494636418832377 0.4851971533715918 0.4851971533715918 0.6107661649225608 0.6107661649225608
          0.6570951275917746 0.6570951275917746 0.6410604045276852 0.6410604045276852 0.5015901534875633 0.5015901534875633
          0.41891847712089403 0.41891847712089403 0.3956265787260247 0.3956265787260247 0.4733596381524581 0.4733596381524581
          0.39446310313752697 0.39446310313752697 0.4182297755637789 0.4182297755637789 0.37609050385439485 0.37609050385439485
          0.502038697301451 0.502038697301451 0.6044696733813505 0.6044696733813505 0.6388017397924767 0.6388017397924767
          0.493964739875075 0.493964739875075 0.47361742729199324 0.47361742729199324 0.5245494519998898 0.5245494519998898
          0.44627227421475246 0.44627227421475246 0.4660453701228872 0.4660453701228872 0.35849467546932673 0.35849467546932673
          0.4125759742597799 0.4125759742597799 0.5761495943407787 0.5761495943407787 0.5403521237055798 0.5403521237055798
          0.5097155232607661 0.5097155232607661 0.5467297094936951 0.5467297094936951 0.5319757900988392 0.5319757900988392
          0.4654941747058228 0.4654941747058228 0.40906128439639183 0.40906128439639183 0.43539521074931997 0.43539521074931997
          0.6965971109418096 0.6965971109418096 0.6544992023297358 0.6544992023297358 0.5580988829753764 0.5580988829753764
          0.5839458122359137 0.5839458122359137 0.6205591016610212 0.6205591016610212 0.5096968847718738 0.5096968847718738
          0.47016498513219634 0.47016498513219634 0.4421021257612269 0.4421021257612269 0.5218014218608685 0.5218014218608685
          0.7433237797602429 0.7433237797602429 0.7549015729332171 0.7549015729332171 0.6935605137619113 0.6935605137619113
          0.5864942834897363 0.5864942834897363 0.5659299556476264 0.5659299556476264 0.6213017487063763 0.6213017487063763
          0.5254837265185844 0.5254837265185844 0.5268778755713392 0.5268778755713392 0.5640722196544595 0.5640722196544595
          0.5456080857142472 0.5456080857142472 0.7608943851101797 0.7608943851101797 0.7201208978688077 0.7201208978688077
          0.685228135781081 0.685228135781081 0.615753857663092 0.615753857663092 0.6204707062153078 0.6204707062153078
          0.5315231422540593 0.5315231422540593 0.5437260240791779 0.5437260240791779 0.5187768923387295 0.5187768923387295
          0.6006841748763984 0.6006841748763984 0.583558085450908 0.583558085450908 0.760937788402261 0.760937788402261
          0.6298292997549728 0.6298292997549728 0.6075824043295942 0.6075824043295942 0.5999983473647469 0.5999983473647469
          0.5768772331754727 0.5768772331754727 0.5024706767308788 0.5024706767308788 0.5361750733531476 0.5361750733531476
          0.5298894109382167 0.5298894109382167 0.5514309879998415 0.5514309879998415 0.5513730508072411 0.5513730508072411
          0.6121205782872521 0.6121205782872521 0.6296950399529242 0.6296950399529242 0.5845666779663773 0.5845666779663773
          0.6004986053970421 0.6004986053970421 0.5451900356479781 0.5451900356479781 0.5463889604512319 0.5463889604512319
          0.5348939871520325 0.5348939871520325 0.5406241923258388 0.5406241923258388 0.4696580995180824 0.4696580995180824
          0.5702667559452179 0.5702667559452179 0.5748863387816113 0.5748863387816113 0.6234508605774702 0.6234508605774702
          0.5559027809189753 0.5559027809189753 0.5267749461205554 0.5267749461205554 0.5621089659086721 0.5621089659086721
          0.5299425655688923 0.5299425655688923 0.5401243981038016 0.5401243981038016 0.5009369136619878 0.5009369136619878
          0.49353575114811826 0.49353575114811826 0.5161382485461138 0.5161382485461138 0.5921641334348655 0.5921641334348655
          0.5748239844261697 0.5748239844261697 0.4601570568560051 0.4601570568560051 0.5276182674003168 0.5276182674003168
          0.49292820117142827 0.49292820117142827 0.5558503149030782 0.5558503149030782 0.6338197736801906 0.6338197736801906
          0.5415263880552632 0.5415263880552632 0.5615894592918338 0.5615894592918338 0.6104850633807999 0.6104850633807999
          0.535279670545535 0.535279670545535 0.590483573215048 0.590483573215048 0.4776309775705134 0.4776309775705134
          0.5518005628185514 0.5518005628185514 0.5432884897806171 0.5432884897806171 0.6092289960424992 0.6092289960424992
          0.5029127335996882 0.5029127335996882 0.47514803309874537 0.47514803309874537 0.47770148097402587 0.47770148097402587
          0.4782167434822473 0.4782167434822473 0.49967768113607997 0.49967768113607997 0.5883252147850582 0.5883252147850582
          0.4600620759236551 0.4600620759236551 0.43800877914899733 0.43800877914899733 0.42147869446975306 0.42147869446975306
          0.4921030290850154 0.4921030290850154 0.49466050410231827 0.49466050410231827 0.47888588971322726 0.47888588971322726
          0.5956592132878137 0.5956592132878137 0.48813185152719724 0.48813185152719724 0.39255499324755555 0.39255499324755555
          0.46421296379748284 0.46421296379748284 0.4078540758820876 0.4078540758820876 0.41939330579956313 0.41939330579956313
          0.4152510590498391 0.4152510590498391 0.6279267485404056 0.6279267485404056 0.5694187519177708 0.5694187519177708
          0.4974977330696139 0.4974977330696139 0.4721251279184355 0.4721251279184355 0.462316781085808 0.462316781085808
          0.42325540354098573 0.42325540354098573 0.6698140649966075 0.6698140649966075 0.6002878549504695 0.6002878549504695
          0.5706186172215261 0.5706186172215261 0.5796927177607648 0.5796927177607648 0.4619072740374402 0.4619072740374402
          0.4053997026809924 0.4053997026809924 0.4652605073654255 0.4652605073654255 0.4566779455738143 0.4566779455738143
          0.5944402833990161 0.5944402833990161 0.5324063005429872 0.5324063005429872 0.47534330357889326 0.47534330357889326
          0.35072077820163977 0.35072077820163977 0.3093683691314961 0.3093683691314961 0.26155538210603163 0.26155538210603163
          0.39608123551393554 0.39608123551393554 0.5995041790945562 0.5995041790945562 0.45731722446728135 0.45731722446728135
          0.3412763711782531 0.3412763711782531 0.20401580849058887 0.20401580849058887 0.32591754570867243 0.32591754570867243
          0.44025106126283625 0.44025106126283625 0.5414439332374518 0.5414439332374518 0.3477413253057935 0.3477413253057935
          0.3306065880835187 0.3306065880835187 0.5720080341262471 0.5720080341262471 0.37405666571862817 0.37405666571862817
          0.2679697027391991 0.2679697027391991
        </DataArray>
      </CellData>
      <Points>
        <DataArray type="Float64" Name="Points" NumberOfComponents="3" format="ascii" RangeMin="5634648.667508028" RangeMax="5662962.601523164">
          409825 5619725 0 410775 5619725 0
          411725 5619725 0 415525 5619725 0
          416475 5619725 0 417425 5619725 0
          418375 5619725 0 419325 5619725 0
          409825 5620675 0 410775 5620675 0
          411725 5620675 0 412675 5620675 0
          413625 5620675 0 414575 5620675 0
          415525 5620675 0 416475 5620675 0
          417425 5620675 0 418375 5620675 0
          419325 5620675 0 420275 5620675 0
          421225 5620675 0 408875 5621625 0
          409825 5621625 0 410775 5621625 0
          411725 5621625 0 412675 5621625 0
          413625 5621625 0 414575 5621625 0
          415525 5621625 0 416475 5621625 0
          417425 5621625 0 418375 5621625 0
          419325 5621625 0 420275 5621625 0
          421225 5621625 0 422175 5621625 0
          408875 5622575 0 409825 5622575 0
          410775 5622575 0 411725 5622575 0
          412675 5622575 0 413625 5622575 0
          414575 5622575 0 415525 5622575 0
          416475 5622575 0 417425 5622575 0
          418375 5622575 0 419325 5622575 0
          420275 5622575 0 421225 5622575 0
          422175 5622575 0 408875 5623525 0
          409825 5623525 0 410775 5623525 0
          411725 5623525 0 412675 5623525 0
          413625 5623525 0 414575 5623525 0
          415525 5623525 0 416475 5623525 0
          417425 5623525 0 418375 5623525 0
          419325 5623525 0 420275 5623525 0
          421225 5623525 0 408875 5624475 0
          409825 5624475 0 410775 5624475 0
          411725 5624475 0 412675 5624475 0
          413625 5624475 0 414575 5624475 0
          415525 5624475 0 416475 5624475 0
          417425 5624475 0 418375 5624475 0
          419325 5624475 0 420275 5624475 0
          408875 5625425 0 409825 5625425 0
          410775 5625425 0 411725 5625425 0
          412675 5625425 0 413625 5625425 0
          414575 5625425 0 415525 5625425 0
          416475 5625425 0 417425 5625425 0
          418375 5625425 0 419325 5625425 0
          420275 5625425 0 408875 5626375 0
          409825 5626375 0 410775 5626375 0
          411725 5626375 0 412675 5626375 0
          413625 5626375 0 414575 5626375 0
          415525 5626375 0 416475 5626375 0
          417425 5626375 0 418375 5626375 0
          419325 5626375 0 420275 5626375 0
          408875 5627325 0 409825 5627325 0
          410775 5627325 0 411725 5627325 0
          412675 5627325 0 413625 5627325 0
          414575 5627325 0 415525 5627325 0
          416475 5627325 0 417425 5627325 0
          418375 5627325 0 419325 5627325 0
          420275 5627325 0 409825 5628275 0
          410775 5628275 0 411725 5628275 0
          412675 5628275 0 413625 5628275 0
          414575 5628275 0 415525 5628275 0
          416475 5628275 0 417425 5628275 0
          418375 5628275 0 419325 5628275 0
          420275 5628275 0 409825 5629225 0
          410775 5629225 0 411725 5629225 0
          412675 5629225 0 413625 5629225 0
          414575 5629225 0 415525 5629225 0
          416475 5629225 0 417425 5629225 0
          418375 5629225 0 419325 5629225 0
          408875 5630175 0 409825 5630175 0
          410775 5630175 0 411725 5630175 0
          412675 5630175 0 413625 5630175 0
          414575 5630175 0 415525 5630175 0
          416475 5630175 0 417425 5630175 0
          407925 5631125 0 408875 5631125 0
          409825 5631125 0 410775 5631125 0
          411725 5631125 0 412675 5631125 0
          413625 5631125 0 414575 5631125 0
          415525 5631125 0 416475 5631125 0
          417425 5631125 0 407925 5632075 0
          408875 5632075 0 409825 5632075 0
          410775 5632075 0 411725 5632075 0
          412675 5632075 0 413625 5632075 0
          414575 5632075 0 415525 5632075 0
          416475 5632075 0 417425 5632075 0
          407925 5633025 0 408875 5633025 0
          409825 5633025 0 410775 5633025 0
          411725 5633025 0 412675 5633025 0
          413625 5633025 0 414575 5633025 0
          415525 5633025 0 416475 5633025 0
          417425 5633025 0 418375 5633025 0
          408875 5633975 0 409825 5633975 0
          410775 5633975 0 411725 5633975 0
          412675 5633975 0 413625 5633975 0
          414575 5633975 0 415525 5633975 0
          416475 5633975 0 417425 5633975 0
          418375 5633975 0 409825 5634925 0
          410775 5634925 0 411725 5634925 0
          412675 5634925 0 413625 5634925 0
          414575 5634925 0 415525 5634925 0
          416475 5634925 0 417425 5634925 0
          418375 5634925 0 411725 5635875 0
          412675 5635875 0 413625 5635875 0
          414575 5635875 0 415525 5635875 0
          416475 5635875 0 417425 5635875 0
          418375 5635875 0 411725 5636825 0
          412675 5636825 0 413625 5636825 0
          414575 5636825 0 415525 5636825 0
          416475 5636825 0 417425 5636825 0
          412675 5637775 0 413625 5637775 0
          414575 5637775 0 415525 5637775 0
          416475 5637775 0 417425 5637775 0
          412675 5638725 0 413625 5638725 0
          414575 5638725 0 415525 5638725 0
          416475 5638725 0 417425 5638725 0
          418375 5638725 0 413625 5639675 0
          414575 5639675 0 415525 5639675 0
          416475 5639675 0 417425 5639675 0
          418375 5639675 0 419325 5639675 0
          420275 5639675 0 414575 5640625 0
          415525 5640625 0 416475 5640625 0
          417425 5640625 0 418375 5640625 0
          419325 5640625 0 420275 5640625 0
          414575 5641575 0 415525 5641575 0
          416475 5641575 0 417425 5641575 0
          418375 5641575 0 419325 5641575 0
          420275 5641575 0 421225 5641575 0
          414575 5642525 0 415525 5642525 0
          416475 5642525 0 417425 5642525 0
          418375 5642525 0 419325 5642525 0
          420275 5642525 0 421225 5642525 0
          413625 5643475 0 414575 5643475 0
          415525 5643475 0 416475 5643475 0
          417425 5643475 0 418375 5643475 0
          419325 5643475 0 420275 5643475 0
          421225 5643475 0 413625 5644425 0
          414575 5644425 0 415525 5644425 0
          416475 5644425 0 417425 5644425 0
          418375 5644425 0 419325 5644425 0
          420275 5644425 0 421225 5644425 0
          413625 5645375 0 414575 5645375 0
          415525 5645375 0 416475 5645375 0
          417425 5645375 0 418375 5645375 0
          419325 5645375 0 420275 5645375 0
          421225 5645375 0 415525 5646325 0
          416475 5646325 0 417425 5646325 0
          418375 5646325 0 419325 5646325 0
          420275 5646325 0 421225 5646325 0
          416475 5647275 0 417425 5647275 0
          418375 5647275 0 419325 5647275 0
          420275 5647275 0 421225 5647275 0
          <InformationKey name="L2_NORM_RANGE" location="vtkDataArray" length="2">
            <Value index="0">
              5634648.6675
            </Value>
            <Value index="1">
              5662962.6015
            </Value>
          </InformationKey>
        </DataArray>
      </Points>
      <Cells>
        <DataArray type="Int64" Name="connectivity" format="ascii" RangeMin="0" RangeMax="303">
          0 9 8 0 1 9
          1 10 9 1 2 10
          3 15 14 3 4 15
          4 16 15 4 5 16
          5 17 16 5 6 17
          6 18 17 6 7 18
          8 23 22 8 9 23
          9 24 23 9 10 24
          10 25 24 10 11 25
          11 26 25 11 12 26
          12 27 26 12 13 27
          13 28 27 13 14 28
          14 29 28 14 15 29
          15 30 29 15 16 30
          16 31 30 16 17 31
          17 32 31 17 18 32
          18 33 32 18 19 33
          19 34 33 19 20 34
          21 37 36 21 22 37
          22 38 37 22 23 38
          23 39 38 23 24 39
          24 40 39 24 25 40
          25 41 40 25 26 41
          26 42 41 26 27 42
          27 43 42 27 28 43
          28 44 43 28 29 44
          29 45 44 29 30 45
          30 46 45 30 31 46
          31 47 46 31 32 47
          32 48 47 32 33 48
          33 49 48 33 34 49
          34 50 49 34 35 50
          36 52 51 36 37 52
          37 53 52 37 38 53
          38 54 53 38 39 54
          39 55 54 39 40 55
          40 56 55 40 41 56
          41 57 56 41 42 57
          42 58 57 42 43 58
          43 59 58 43 44 59
          44 60 59 44 45 60
          45 61 60 45 46 61
          46 62 61 46 47 62
          47 63 62 47 48 63
          48 64 63 48 49 64
          52 67 66 52 53 67
          53 68 67 53 54 68
          54 69 68 54 55 69
          55 70 69 55 56 70
          56 71 70 56 57 71
          57 72 71 57 58 72
          58 73 72 58 59 73
          59 74 73 59 60 74
          60 75 74 60 61 75
          61 76 75 61 62 76
          62 77 76 62 63 77
          65 79 78 65 66 79
          66 80 79 66 67 80
          67 81 80 67 68 81
          68 82 81 68 69 82
          69 83 82 69 70 83
          70 84 83 70 71 84
          71 85 84 71 72 85
          72 86 85 72 73 86
          73 87 86 73 74 87
          74 88 87 74 75 88
          75 89 88 75 76 89
          76 90 89 76 77 90
          78 92 91 78 79 92
          79 93 92 79 80 93
          80 94 93 80 81 94
          81 95 94 81 82 95
          82 96 95 82 83 96
          83 97 96 83 84 97
          84 98 97 84 85 98
          85 99 98 85 86 99
          86 100 99 86 87 100
          87 101 100 87 88 101
          88 102 101 88 89 102
          89 103 102 89 90 103
          91 105 104 91 92 105
          92 106 105 92 93 106
          93 107 106 93 94 107
          94 108 107 94 95 108
          95 109 108 95 96 109
          96 110 109 96 97 110
          97 111 110 97 98 111
          98 112 111 98 99 112
          99 113 112 99 100 113
          100 114 113 100 101 114
          101 115 114 101 102 115
          102 116 115 102 103 116
          105 118 117 105 106 118
          106 119 118 106 107 119
          107 120 119 107 108 120
          108 121 120 108 109 121
          109 122 121 109 110 122
          110 123 122 110 111 123
          111 124 123 111 112 124
          112 125 124 112 113 125
          113 126 125 113 114 126
          114 127 126 114 115 127
          115 128 127 115 116 128
          118 131 130 118 119 131
          119 132 131 119 120 132
          120 133 132 120 121 133
          121 134 133 121 122 134
          122 135 134 122 123 135
          123 136 135 123 124 136
          124 137 136 124 125 137
          125 138 137 125 126 138
          126 139 138 126 127 139
          129 142 141 129 130 142
          130 143 142 130 131 143
          131 144 143 131 132 144
          132 145 144 132 133 145
          133 146 145 133 134 146
          134 147 146 134 135 147
          135 148 147 135 136 148
          136 149 148 136 137 149
          140 152 151 140 141 152
          141 153 152 141 142 153
          142 154 153 142 143 154
          143 155 154 143 144 155
          144 156 155 144 145 156
          145 157 156 145 146 157
          146 158 157 146 147 158
          147 159 158 147 148 159
          148 160 159 148 149 160
          150 162 161 150 151 162
          151 163 162 151 152 163
          152 164 163 152 153 164
          153 165 164 153 154 165
          154 166 165 154 155 166
          155 167 166 155 156 167
          156 168 167 156 157 168
          157 169 168 157 158 169
          158 170 169 158 159 170
          159 171 170 159 160 171
          161 173 172 161 162 173
          162 174 173 162 163 174
          163 175 174 163 164 175
          164 176 175 164 165 176
          165 177 176 165 166 177
          166 178 177 166 167 178
          167 179 178 167 168 179
          168 180 179 168 169 180
          169 181 180 169 170 181
          170 182 181 170 171 182
          173 185 184 173 174 185
          174 186 185 174 175 186
          175 187 186 175 176 187
          176 188 187 176 177 188
          177 189 188 177 178 189
          178 190 189 178 179 190
          179 191 190 179 180 191
          180 192 191 180 181 192
          181 193 192 181 182 193
          182 194 193 182 183 194
          185 196 195 185 186 196
          186 197 196 186 187 197
          187 198 197 187 188 198
          188 199 198 188 189 199
          189 200 199 189 190 200
          190 201 200 190 191 201
          191 202 201 191 192 202
          192 203 202 192 193 203
          193 204 203 193 194 204
          197 206 205 197 198 206
          198 207 206 198 199 207
          199 208 207 199 200 208
          200 209 208 200 201 209
          201 210 209 201 202 210
          202 211 210 202 203 211
          203 212 211 203 204 212
          205 214 213 205 206 214
          206 215 214 206 207 215
          207 216 215 207 208 216
          208 217 216 208 209 217
          209 218 217 209 210 218
          210 219 218 210 211 219
          214 221 220 214 215 221
          215 222 221 215 216 222
          216 223 222 216 217 223
          217 224 223 217 218 224
          220 227 226 220 221 227
          221 228 227 221 222 228
          222 229 228 222 223 229
          223 230 229 223 224 230
          224 231 230 224 225 231
          227 234 233 227 228 234
          228 235 234 228 229 235
          229 236 235 229 230 236
          230 237 236 230 231 237
          231 238 237 231 232 238
          234 242 241 234 235 242
          235 243 242 235 236 243
          236 244 243 236 237 244
          237 245 244 237 238 245
          238 246 245 238 239 246
          239 247 246 239 240 247
          241 249 248 241 242 249
          242 250 249 242 243 250
          243 251 250 243 244 251
          244 252 251 244 245 252
          245 253 252 245 246 253
          246 254 253 246 247 254
          248 257 256 248 249 257
          249 258 257 249 250 258
          250 259 258 250 251 259
          251 260 259 251 252 260
          252 261 260 252 253 261