<?xml version="1.0"?>
<VTKFile type="UnstructuredGrid" version="1.0" byte_order="LittleEndian" header_type="UInt64">
  <UnstructuredGrid>
    <Piece NumberOfPoints="1453" NumberOfCells="2154">
      <PointData>
      </PointData>
      <CellData>
        <DataArray type="Int32" Name="MaterialIDs" format="ascii" RangeMin="0" RangeMax="5">
          0 0 0 0 0 0
          0 0 0 0 0 0
          0 0 0 0 0 0
          0 0 0 0 0 0
          0 0 0 0 0 0
          0 0 0 0 0 0
          0 0 0 0 0 0
          0 0 0 0 0 0
          0 0 0 0 0 0
          0 0 0 0 0 0
          0 0 0 0 0 0
          0 0 0 0 0 0
          0 0 0 0 0 0
          0 0 0 0 0 0
          0 0 0 0 0 0
          0 0 0 0 0 0
          0 0 0 0 0 0
          0 0 1 1 1 1
          1 1 1 1 1 1
          1 1 1 1 1 1
          1 1 1 1 1 1
          1 1 1 1 1 1
          1 1 1 1 1 1
          1 1 1 1 1 1
          1 1 1 1 1 1
          1 1 1 1 1 1
          1 1 1 1 1 1
          1 1 1 1 1 1
          1 1 1 1 1 1
          1 1 1 1 1 1
          1 1 1 1 1 1
          1 1 1 1 1 1
          1 1 1 1 1 1
          1 1 1 1 1 1
          1 1 1 1 1 1
          1 1 1 1 1 1
          1 1 1 1 1 1
          1 1 1 1 1 2
          2 2 2 2 2 2
          2 2 2 2 2 2
          2 2 2 2 2 2
          2 2 2 2 2 2
          2 2 2 2 2 2
          2 2 2 2 2 2
          2 2 2 2 2 2
          2 2 2 2 2 2
          2 2 2 2 2 2
          2 2 2 2 2 2
          2 2 2 2 2 2
          2 2 2 2 2 2
          2 2 2 2 2 2
          2 2 2 2 2 2
          2 2 2 2 2 2
          2 2 2 2 2 2
          2 2 2 2 2 2
          2 2 2 2 2 2
          2 2 2 2 2 2
          2 2 2 2 2 2
          2 2 2 2 2 2
          2 2 2 2 2 2
          2 2 2 2 2 2
          2 2 2 2 2 2
          2 2 2 2 2 2
          2 2 2 2 2 2
          2 2 2 2 2 2
          2 2 2 2 2 2
          2 2 2 2 2 2
          2 2 2 2 2 2
          2 2 2 2 2 2
          2 2 2 2 2 2
          2 2 2 2 2 2
          2 2 2 2 2 2
          2 2 2 2 2 2
          2 2 2 2 2 2
          2 2 2 2 2 2
          2 2 2 2 2 2
          2 2 2 2 2 2
          2 2 2 2 2 2
          2 2 2 2 2 2
          2 2 2 2 2 2
          2 2 2 2 2 2
          2 2 2 2 2 2
          2 2 2 2 2 2
          2 2 2 2 2 2
          2 2 2 2 2 2
          2 2 2 2 2 2
          2 2 2 2 2 2
          2 2 2 2 2 2
          2 2 2 2 2 2
          2 2 2 2 2 2
          2 2 2 2 5 5
          5 5 5 5 5 5
          5 5 5 5 5 5
          5 5 5 5 5 5
          5 5 5 5 5 5
          5 5 5 5 5 5
          5 5 5 5 5 5
          5 5 5 5 5 5
          5 5 5 5 5 5
          5 5 5 5 5 5
          5 5 5 5 5 5
          5 5 5 5 5 5
          5 5 5 5 5 5
          5 5 5 5 5 5
          5 5 5 5 5 5
          5 5 5 5 5 5
          5 5 5 5 5 5
          5 5 5 5 5 5
          5 5 5 5 5 5
          5 5 5 5 5 5
          5 5 5 5 5 5
          5 5 5 5 5 5
          5 5 5 5 5 5
          5 5 5 5 5 5
          5 5 5 5 5 5
          5 5 5 5 5 5
          5 5 5 5 5 5
          5 5 5 5 5 5
          5 5 5 5 5 5
          5 5 5 5 5 5
          5 5 5 5 5 5
          5 5 5 5 5 5
          5 5 5 5 5 5
          5 5 5 5 5 5
          5 5 5 5 5 5
          5 5 5 5 5 5
          5 5 5 5 5 5
          5 5 5 5 5 5
          5 5 5 5 5 5
          5 5 5 5 5 5
          5 5 5 5 5 5
          5 5 5 5 5 5
          5 5 5 5 5 5
          5 5 5 5 5 5
          5 5 5 5 5 5
          5 5 5 5 5 5
          5 5 5 5 5 5
          5 5 5 5 5 5
          5 5 5 5 5 5
          5 5 5 5 5 5
          5 5 5 5 5 5
          5 5 5 5 5 5
          5 5 5 5 5 5
          5 5 5 5 5 5
          5 5 5 5 5 5
          5 5 5 5 5 5
          5 5 5 5 5 5
          5 5 5 5 5 5
          5 5 5 5 5 5
          5 5 5 5 5 5
          5 5 5 5 5 5
          5 5 5 5 5 5
          5 5 5 5 5 5
          5 5 5 5 5 5
          5 5 5 5 5 5
          5 5 5 5 5 5
          5 5 5 5 5 5
          5 5 5 5 5 5
          5 5 5 5 5 5
          5 5 5 5 5 5
          5 5 5 5 5 5
          5 5 5 5 5 5
          5 5 5 5 5 5
          5 5 5 5 5 5
          5 5 5 5 5 5
          5 5 5 5 5 5
          5 5 5 5 5 5
          5 5 5 5 5 5
          5 5 5 5 5 5
          5 5 5 5 5 5
          5 5 5 5 5 5
          5 5 5 5 5 5
          5 5 5 5 5 5
          5 5 5 5 5 5
          5 5 5 5 5 5
          5 5 5 5 5 5
          5 5 5 5 5 5
          5 5 5 5 5 5
          5 5 5 5 5 5
          5 5 5 5 5 5
          5 5 5 5 5 5
          5 5 5 5 5 5
          5 5 5 5 5 5
          5 5 5 5 5 5
          5 5 5 5 5 5
          5 5 5 5 5 5
          5 5 5 5 5 5
          5 5 5 5 5 5
          5 5 5 5 5 5
          5 5 5 5 5 5
          5 5 5 5 5 5
          5 5 5 5 5 5
          5 5 5 5 5 5
          5 5 5 5 5 5
          5 5 5 5 5 5
          5 5 5 5 5 5
          5 5 5 5 5 5
          5 5 5 5 5 5
          5 5 5 5 5 5
          5 5 5 5 5 5
          5 5 5 5 5 5
          5 5 5 5 5 5
          5 5 5 5 5 5
          5 5 5 5 5 5
          5 5 5 5 5 5
          5 5 5 5 5 5
          5 5 5 5 5 5
          5 5 5 5 5 5
          5 5 5 5 5 5
          5 5 5 5 5 5
          5 5 5 5 5 5
          5 5 5 5 5 5
          5 5 5 5 5 5
          5 5 5 5 5 5
          5 5 5 5 5 5
          5 5 5 5 5 5
          5 5 5 5 5 5
          5 5 5 5 5 5
          5 5 5 5 5 5
          5 5 5 5 5 5
          5 5 5 5 5 5
          5 5 5 5 5 5
          5 5 5 5 5 5
          5 5 5 5 5 5
          5 5 5 5 5 5
          5 5 5 5 5 5
          5 5 5 5 5 5
          5 5 5 5 5 5
          5 5 5 5 5 5
          5 5 5 5 5 5
          5 5 5 5 5 5
          5 5 5 5 5 5
          5 5 5 5 5 5
          5 5 5 5 5 5
          5 5 5 5 5 5
          5 5 5 5 5 5
          5 5 5 5 5 5
          5 5 5 5 5 5
          5 5 5 5 5 5
          5 5 5 5 5 5
          5 5 5 5 5 5
          5 5 5 5 5 5
          5 5 5 5 5 5
          5 5 5 5 5 5
          5 5 5 5 5 5
          5 5 5 5 5 5
          5 5 5 5 5 5
          5 5 5 5 5 5
          5 5 5 5 5 5
          5 5 5 5 5 5
          5 5 5 5 5 5
          5 5 5 5 5 5
          5 5 5 5 5 5
          5 5 5 5 5 5
          5 5 5 5 5 5
          5 5 5 5 5 5
          5 5 5 5 5 5
          5 5 5 5 5 5
          5 5 5 5 5 5
          5 5 5 5 5 5
          5 5 5 5 5 5
          5 5 5 5 5 5
          5 5 5 5 5 5
          5 5 5 5 5 5
          5 5 5 5 5 5
          5 5 5 5 5 5
          5 5 5 5 5 5
          5 5 5 5 5 5
          5 5 5 5 5 5
          5 5 5 5 5 5
          5 5 5 5 5 5
          5 5 5 5 5 5
          5 5 5 5 5 5
          5 5 5 5 5 5
          5 5 5 5 5 5
          5 5 5 5 5 5
          5 5 5 5 5 5
          5 5 5 5 5 5
          5 5 5 5 5 5
          5 5 5 5 5 5
          5 5 5 5 5 5
          5 5 5 5 5 5
          5 5 5 5 5 5
          5 5 5 5 5 5
          5 5 5 5 5 5
          5 5 5 5 5 5
          5 5 5 5 5 5
          5 5 5 5 5 5
          5 5 5 5 5 5
          5 5 5 5 5 5
          5 5 5 5 5 5
          5 5 5 5 5 5
          5 5 5 5 5 5
          5 5 5 5 5 5
          5 5 5 5 5 5
          5 5 5 5 5 5
          5 5 5 5 5 5
          5 5 5 5 5 5
          5 5 5 5 5 5
          5 5 5 5 5 5
          5 5 5 5 5 5
          5 5 5 5 5 5
          5 5 5 5 5 5
          5 5 5 5 5 5
          5 5 5 5 5 5
          5 5 5 5 5 5
          5 5 5 5 5 5
          5 5 5 5 5 5
          5 5 5 5 5 5
          5 5 5 5 5 5
          5 5 5 5 5 5
          5 5 5 5 5 5
          5 5 5 5 5 5
          5 5 5 5 5 5
          5 5 5 5 5 5
          5 5 5 5 5 5
          5 5 5 5 5 5
          5 5 5 5 5 5
          5 5 5 5 5 5
          5 5 5 5 5 5
          5 5 5 5 5 5
          5 5 5 5 5 5
          5 5 5 5 5 5
          5 5 5 5 5 5
          5 5 5 5 5 5
          5 5 5 5 5 5
          5 5 5 5 5 5
          5 5 5 5 5 5
          5 5 5 5 5 5
          5 5 5 5 5 5
          5 5 5 5 5 5
          5 5 5 5 5 5
          5 5 5 5 5 5
          5 5 5 5 5 5
          5 5 5 5 5 5
          5 5 5 5 5 5
          5 5 5 5 5 5
          5 5 5 5 5 5
          5 5 5 5 5 5
          5 5 5 5 5 5
          5 5 5 5 5 5
          5 5 5 5 5 5
          5 5 5 5 5 5
          5 5 5 5 5 5
          5 5 5 5 5 5
          5 5 5 5 5 5
          5 5 5 5 5 5
          5 5 5 5 5 5
          5 5 5 5 5 5
          5 5 5 5 5 5
          5 5 5 5 5 5
          5 5 5 5 5 5
          5 5 5 5 5 5
          5 5 5 5 5 5
          5 5 5 5 5 5
          5 5 5 5 5 5
          5 5 5 5 5 5
          5 5 5 5 5 5
          5 5 5 5 5 5
        </DataArray>
      </CellData>
      <Points>
        <DataArray type="Float64" Name="Points" NumberOfComponents="3" format="ascii" RangeMin="5909158.232602377" RangeMax="5920167.320299849">
          571204 5882444.5625 -2040.2183837890625 571166 5882243.5 -2029.8309326171875
          571466 5882408.625 -1951.787353515625 571472 5881996.6875 -1904.803955078125
          568942 5884675.8125 -2464.55224609375 568932 5884664.75 -2468.05908203125
          568960 5884686.5625 -2460.775146484375 571212 5882688.25 -2059.61865234375
          571110 5882370.875 -2062.55224609375 571074 5882485.75 -2083.073974609375
          568974 5884699.1875 -2456.674072265625 569036 5884525.5 -2495.86572265625
          569526 5884781.875 -2400.12255859375 571074 5882315.25 -2069.8427734375
          568776 5884515.875 -2526.066162109375 568680 5884424.75 -2556.7216796875
          571036 5882352.1875 -2082.4931640625 569632 5884672.75 -2419.985595703125
          569470 5884292 -2489.48974609375 569726 5884590 -2417.190673828125
          568660 5884406.8125 -2562.84423828125 568958 5884178.125 -2581.69287109375
          570750 5882610.0625 -2187.077392578125 569278 5884421.6875 -2502.4052734375
          570998 5883056.6875 -2149.97900390625 570626 5883011.5625 -2243.40869140625
          571320 5883010.0625 -2056.145263671875 572020 5882254.5625 -1752.4345703125
          572256 5882073.4375 -1651.1881103515625 572218 5882275.3125 -1690.373046875
          571200 5883196 -2105.852783203125 571566 5882728.125 -1956.89599609375
          571660 5883027.8125 -1956.8529052734375 571818 5882523.75 -1848.867919921875
          571736 5882184.125 -1836.525390625 571926 5882878.1875 -1849.4423828125
          572162 5882463.8125 -1729.0419921875 569216 5884991.6875 -2366.100830078125
          569208 5884980.5 -2369.497314453125 569226 5885031.6875 -2355.054443359375
          572002 5882859.5625 -1815.2529296875 569906 5883942.125 -2402.125244140625
          570278 5884172.75 -2322.282958984375 569860 5884489.75 -2385.080078125
          572070 5882652.0625 -1768.64697265625 568988 5884711.1875 -2452.78125
          572172 5882017.125 -1670.5887451171875 571966 5881978.375 -1730.95166015625
          572150 5881807.125 -1644.455810546875 571950 5881604.8125 -1683.4091796875
          572272 5881847.875 -1612.7779541015625 569040 5884775.375 -2433.44189453125
          569028 5884124.3125 -2587.78466796875 572266 5881656.4375 -1581.90625
          572142 5881601.375 -1613.2919921875 571954 5881601.8125 -1681.026123046875
          572234 5881385.625 -1548.2957763671875 571952 5881603.5625 -1682.7696533203125
          571518 5881957.75 -1884.3912353515625 571310 5883309.5625 -2084.07080078125
          569240 5885058.5625 -2347.21728515625 571172 5883424.625 -2127.2265625
          570682 5883322.1875 -2244.048828125 570904 5883646 -2206.7138671875
          570472 5883593.6875 -2293.1875 569000 5884725.875 -2448.389892578125
          570324 5883352.8125 -2322.59814453125 570698 5883820 -2246.078369140625
          570270 5883821.75 -2331.02734375 570110 5883610.125 -2367.977294921875
          569694 5883552.875 -2481.9716796875 569502 5883721.1875 -2521.192626953125
          570000 5883276 -2406.90966796875 570224 5883068.625 -2336.416259765625
          570452 5883153.0625 -2289.639892578125 570382 5882933.3125 -2299.34423828125
          570496 5882834.875 -2266.330322265625 569686 5884203.8125 -2447.119873046875
          568932 5889808.9375 -2388.486328125 568976 5889711.25 -2392.711669921875
          568704 5889726.0625 -2494.629638671875 567580 5892717.375 -1963.3050537109375
          567568 5892897.75 -1942.61865234375 567576 5892878.9375 -1948.924560546875
          567218 5890461.375 -2290.431640625 567284 5890575.875 -2268.443115234375
          567250 5890377.875 -2317.4091796875 567586 5892855.8125 -1953.6395263671875
          568328 5891174.875 -2210.880126953125 568332 5891166.125 -2212.320556640625
          568184 5891116.4375 -2240.8056640625 567622 5892774.625 -1971.6192626953125
          568856 5889982.0625 -2379.14453125 568340 5889951.25 -2492.506591796875
          568628 5890495.5 -2326.430419921875 568732 5890264.25 -2354.300048828125
          568448 5890272.0625 -2442.180419921875 567650 5892710.3125 -1983.0966796875
          568786 5890141.875 -2365.632568359375 567724 5892545.0625 -2004.6236572265625
          567570 5892511.875 -1989.8211669921875 567708 5892580.3125 -2000
          567726 5892540.875 -2005.17626953125 567586 5892457.25 -1995.94970703125
          567892 5892165.25 -2048.854248046875 567906 5892133.25 -2052.370849609375
          567744 5892021 -2037.078125 567980 5891224.75 -2192.9833984375
          567864 5891010.5 -2232.275634765625 567912 5892116.625 -2054.195068359375
          567926 5892085.5 -2059.812255859375 568876 5889937.5 -2382.927001953125
          567942 5892051.875 -2065.903564453125 568028 5891853.9375 -2093.0185546875
          567820 5892327.875 -2029.1099853515625 567978 5891719.875 -2116.699462890625
          569134 5889353.625 -2392.52197265625 569180 5889248.75 -2384.869140625
          568882 5889201.75 -2515.69580078125 568030 5891851.1875 -2093.483154296875
          568034 5891840.8125 -2095.3447265625 568082 5891732.0625 -2111.850341796875
          567712 5891805.875 -2064.591796875 567706 5891760.5625 -2070.38330078125
          567668 5891527.75 -2101.456787109375 567866 5891374.875 -2153.58642578125
          567648 5891355.75 -2125.040283203125 568142 5891411.125 -2175.481201171875
          568128 5891630.25 -2126.533935546875 567856 5891202.6875 -2183.926025390625
          567724 5891198.375 -2164.333740234375 569102 5889426.4375 -2394.0712890625
          568838 5889230.125 -2521.417724609375 568752 5889479.875 -2513.4033203125
          567570 5892600.5625 -1978.2613525390625 567614 5891209.625 -2146.354248046875
          567594 5891159.875 -2154.9697265625 567554 5891061.8125 -2173.615234375
          567662 5890750.0625 -2270.505615234375 567376 5890718.125 -2238.72509765625
          567864 5890703.375 -2312.670166015625 568052 5890844.5 -2295.465087890625
          567720 5890608.875 -2318.4443359375 569016 5889620.0625 -2395.953369140625
          568982 5889697.125 -2393.32080078125 567804 5890532.4375 -2347.38330078125
          567522 5890528.375 -2313.206787109375 567816 5890340.0625 -2392.36572265625
          568058 5890571.875 -2360.662353515625 567422 5890194 -2389.332275390625
          567870 5889891.8125 -2498.110595703125 568166 5890269.75 -2437.31103515625
          568370 5890538.3125 -2382.42822265625 568292 5890826.6875 -2317.099609375
          568530 5890719.625 -2296.919921875 568536 5890705.1875 -2298.993896484375
          568472 5890851 -2277.970947265625 568444 5890912.25 -2264.266845703125
          568428 5890952.625 -2255.91943359375 569132 5889358.375 -2392.867919921875
          568364 5891096.8125 -2226.11767578125 568312 5891213.25 -2204.607177734375
          568258 5891337.5 -2178.56103515625 568214 5891434.625 -2158.1982421875
          568156 5891567.875 -2134.992919921875 567736 5892515.375 -2008.5162353515625
          567606 5892436.625 -1997.521240234375 568592 5890577.875 -2316.76513671875
          568602 5890555.125 -2319.43212890625 567648 5892381.125 -2002.5050048828125
          568362 5889526.8125 -2547.742919921875 568008 5889775.75 -2522.78271484375
          569306 5888963.3125 -2364.0322265625 567326 5890648.3125 -2254.5205078125
          567362 5890698 -2243.273681640625 567678 5892647.625 -1991.169677734375
          567204 5890446.6875 -2293.40576171875 567190 5890439.6875 -2294.996826171875
          568106 5891678.75 -2119.949951171875 568744 5890236.75 -2357.614501953125
          570714 5887978.375 -2116.64111328125 570648 5887806.25 -2116.926025390625
          570824 5887784.3125 -2084.013427734375 570804 5885573.625 -2175.054443359375
          570804 5885570.75 -2175.352783203125 570808 5885571.1875 -2175.35546875
          571120 5885998.25 -2110.421142578125 571156 5885986 -2097.982177734375
          571154 5886004.75 -2098.117919921875 571158 5886836.75 -2080.512451171875
          571178 5886793.3125 -2071.980224609375 571178 5886794.25 -2071.94140625
          569718 5888030.75 -2215.73291015625 569736 5887987.6875 -2209.5732421875
          569794 5888117.375 -2225.8115234375 572574 5882409.5 -1934.5592041015625
          572446 5882327.375 -1945.549072265625 572602 5882210.3125 -1867.060791015625
          569872 5887679.875 -2162.036376953125 569938 5887532.375 -2143.5888671875
          569940 5887813.1875 -2182.039794921875 569334 5888898.3125 -2349.902099609375
          569354 5888853.5625 -2343.812744140625 569374 5888923.6875 -2349.483154296875
          571734 5883464.75 -2166.785400390625 571970 5883239.875 -2134.167236328125
          571940 5883576.5 -2170.193359375 571748 5883434.5 -2163.248779296875
          570710 5886529.75 -2123.725830078125 570912 5886357.8125 -2120.74072265625
          570968 5886626 -2111.49951171875 572874 5882888.3125 -1977.6187744140625
          572884 5882891.625 -1972.826904296875 572880 5882897.375 -1973.78515625
          571482 5885186.25 -2136.05078125 571478 5885193.1875 -2135.762939453125
          571344 5885176.375 -2174.739501953125 570904 5886116.0625 -2127.334228515625
          571156 5886319 -2087.8154296875 569972 5887456.25 -2134.071044921875
          570038 5887451.125 -2135.128662109375 571048 5886018.625 -2121.88330078125
          571060 5885957.5625 -2126.311279296875 569490 5888863.375 -2335.401123046875
          570868 5885427.1875 -2188.22509765625 570944 5885255.75 -2203.40380859375
          571104 5885211.0625 -2203.798828125 571144 5886053.625 -2096.674560546875
          572708 5883555.3125 -2078.56298828125 572490 5883517.5625 -2122.595703125
          572628 5883371.25 -2092.1796875 570236 5887692.6875 -2149.05517578125
          570202 5887933.0625 -2177.30078125 569392 5888768.5 -2332.65185546875
          572878 5882776.1875 -1948.011474609375 572808 5882852.125 -1992.455078125
          572616 5882707.375 -1996.872802734375 572312 5882933.25 -2067.1064453125
          572124 5882582 -2037.1588134765625 572150 5882557.875 -2031.3111572265625
          571064 5886839.875 -2099.65869140625 571150 5886883.875 -2083.94970703125
          571546 5883889.8125 -2202.238037109375 571568 5883841.75 -2199.046630859375
          571668 5883930.4375 -2201.740234375 569990 5888332 -2234.341796875
          570204 5888287.1875 -2211.516845703125 570252 5888463.75 -2222.1923828125
          569546 5888420.25 -2278.25537109375 569596 5888304.875 -2256.848388671875
          569694 5888411.5625 -2267.517822265625 570068 5887238.625 -2116.863525390625
          570094 5887181.125 -2114.3310546875 570160 5887232.375 -2117.88525390625
          571286 5885075.0625 -2207.911376953125 571422 5885034.75 -2187.205810546875
          571478 5884658.625 -2215.833740234375 571880 5884797.9375 -2142.2373046875
          571618 5884901.5625 -2175.40869140625 571950 5882979.1875 -2105.875
          572000 5882863.0625 -2087.6533203125 571176 5886831.25 -2072.0693359375
          571178 5886829.5 -2070.4384765625 571178 5886846.5625 -2069.71337890625
          571884 5883125.3125 -2128.3359375 571900 5883091.375 -2123.22802734375
          570434 5887870.875 -2150.24853515625 570912 5885913.875 -2135.22900390625
          571028 5885854 -2137.703857421875 570424 5886433.5 -2127.005615234375
          570434 5886409.375 -2127.125244140625 570366 5888124.625 -2179.763671875
          570294 5886725.625 -2114.09228515625 570500 5886695.25 -2124.077392578125
          570374 5887022.8125 -2121.373046875 571746 5884350.125 -2201.41259765625
          571518 5884215 -2220.298583984375 570322 5886663.1875 -2114.793701171875
          570340 5886621.75 -2116.998779296875 569486 5888555.1875 -2300.3671875
          569536 5888443 -2281.98095703125 569528 5888604.1875 -2304.236328125
          570034 5887316.375 -2123.144775390625 570360 5888413.875 -2204.848876953125
          570680 5888266.5 -2141.68017578125 571130 5885944.0625 -2115.810791015625
          571518 5885135.25 -2137.28271484375 571848 5884847.375 -2140.644287109375
          570532 5887636.0625 -2121.71728515625 570786 5887468.8125 -2090.054931640625
          570824 5887731.125 -2082.34619140625 572642 5882234 -1850.311279296875
          572700 5882377 -1875.0111083984375 571664 5883625.4375 -2182.529052734375
          569924 5888632.125 -2275.652587890625 571536 5884396.75 -2220.698486328125
          572626 5883629.6875 -2093.0068359375 570944 5887207.25 -2092.394775390625
          571190 5887279.5625 -2063.5703125 571186 5887297.5625 -2063.70556640625
          569998 5887395.625 -2128.00927734375 569640 5888208.875 -2242.918212890625
          572400 5883744.5 -2133.484375 572566 5883795.75 -2107.09375
          572518 5883855.125 -2113.097412109375 571220 5885105.75 -2210.346923828125
          571336 5884366.25 -2227.99658203125 571380 5884350.875 -2226.862548828125
          571188 5886949.375 -2067.004150390625 571080 5886985.25 -2092.167724609375
          571254 5884551.125 -2226.24560546875 571264 5884530.25 -2226.361328125
          570794 5886894.9375 -2113.5302734375 572202 5883556.25 -2150.68359375
          572652 5882945.75 -2033.528564453125 572820 5883065.6875 -2004.590576171875
          572440 5883239.3125 -2102.210205078125 571052 5888078.125 -2062.451416015625
          571062 5888091.4375 -2061.730712890625 570084 5888113 -2203.66357421875
          569792 5888699.9375 -2294.87548828125 569808 5887827.1875 -2186.60400390625
          569860 5887709.5 -2165.73876953125 572120 5884379.375 -2162.33642578125
          571986 5884075.9375 -2177.505615234375 572332 5884079.375 -2135.76904296875
          571172 5886851.125 -2073.328857421875 572882 5882872.9375 -1968.7630615234375
          570164 5887020.75 -2111.558349609375 570264 5886796.3125 -2113.298095703125
          571940 5883833.375 -2181.539794921875 572034 5883705.75 -2171.864013671875
          572144 5883830.875 -2161.260498046875 571702 5883539.375 -2175.807373046875
          570630 5887232 -2110.6748046875 570354 5887400 -2115.760009765625
          569672 5888132.625 -2231.8466796875 571940 5883709.4375 -2180.7177734375
          571834 5883716.875 -2185.217041015625 571222 5887136.75 -2062.49609375
          572884 5882887.4375 -1971.86669921875 571176 5886868.375 -2068.974853515625
          571046 5888069.8125 -2062.897216796875 571176 5886874.625 -2068.822265625
          571692 5883563.5625 -2178.12548828125 570108 5887147.875 -2112.86572265625
          571110 5884905.0625 -2223.884521484375 571840 5883226 -2138.909423828125
          572738 5883442.5 -2070.227294921875 571384 5885375.75 -2128.21484375
          571676 5883599 -2180.646484375 571144 5884800.4375 -2224.865478515625
          571240 5885817.875 -2104.830810546875 570980 5887975.1875 -2068.878662109375
          570944 5887922 -2072.237548828125 570786 5887464.625 -2090.138916015625
          572864 5882944.1875 -1982.3577880859375 571144 5886058.75 -2096.5029296875
          569328 5888914.9375 -2352.162109375 571110 5884879 -2224.430419921875
          572780 5882469.75 -1891.4410400390625 570736 5887341.9375 -2102.3447265625
          571510 5883972.75 -2207.74267578125 571918 5883051.3125 -2117.1904296875
          570140 5887077.0625 -2112.137451171875 570808 5885562.8125 -2176.211181640625
          570788 5885605.9375 -2172.133056640625 571460 5884085.5 -2214.873779296875
          569404 5888742.5625 -2328.943359375 570632 5887436.9375 -2105.3564453125
          572628 5882199.25 -1844.30419921875 571512 5885140 -2137.227294921875
          570786 5887468.125 -2090.068359375 571158 5886334.625 -2087.293212890625
          571362 5884310.0625 -2225.708984375 572294 5884477.9375 -2141.22998046875
          571346 5884345.125 -2227.13720703125 570806 5885567.875 -2175.69140625
          570640 5886230.5 -2134.002197265625 571428 5884160.9375 -2219.646728515625
          569452 5888632.375 -2313.219970703125 571164 5885974.6875 -2098.800537109375
          569306 5888961.5 -2357.402587890625 570742 5885711.0625 -2161.99609375
          571198 5887004.6875 -2065.673095703125 572324 5884404.375 -2139.89501953125
          572296 5884446.5 -2146.523193359375 572324 5884426.25 -2140.173095703125
          572306 5884467 -2143.66064453125 572308 5884462.5 -2144.98974609375
          572298 5884475.375 -2141.193603515625 572300 5884474.375 -2141.156005859375
          572300 5884474 -2141.142578125 572308 5884466.5 -2143.396484375
          572312 5884464.1875 -2140.877197265625 572312 5884462.875 -2143.68017578125
          572312 5884463.875 -2140.8662109375 572310 5884457.625 -2144.38037109375
          572314 5884458 -2143.63232421875 572314 5884455.5 -2143.637451171875
          572318 5884448.625 -2140.672119140625 572320 5884443.25 -2140.602783203125
          572312 5884464.125 -2140.87646484375 571102 5884896.0625 -2224.316650390625
          571100 5884903.125 -2224.23388671875 571094 5884913.5625 -2223.850830078125
          571056 5885000.3125 -2219.4765625 570980 5885172.125 -2210.81005859375
          570682 5885846.6875 -2148.92236328125 570650 5885919.375 -2141.91552734375
          570640 5885941.125 -2141.298828125 570616 5885995.75 -2140.78271484375
          570542 5886166.375 -2132.8759765625 570534 5886181.125 -2132.193359375
          570488 5886284.9375 -2130.163330078125 570450 5886373.4375 -2128.431884765625
          569238 5885054.125 -2364.46630859375 569440 5884851.5 -2419.398193359375
          569378 5885329 -2282.568115234375 560214 5891683.4375 -1930.0224609375
          560400 5891536.25 -1940.0413818359375 569164 5886938.5 -2075.842041015625
          569178 5886973.8125 -2074.371826171875 569150 5886968.8125 -2077.167724609375
          569434 5886780.125 -2069.691650390625 569384 5886442.625 -2083.071533203125
          569676 5886488.5625 -2068.557861328125 569636 5885176.5625 -2318.16796875
          563816 5886017.3125 -2164.893798828125 563798 5886050.8125 -2169.375244140625
          563788 5886009.75 -2158.433837890625 559866 5889338.375 -2155.293701171875
          560160 5889478.5 -2120.894775390625 559932 5889527.6875 -2121.033447265625
          566254 5887870 -2428.47705078125 566572 5888113.875 -2430.16552734375
          566302 5888242.8125 -2478.995361328125 568968 5887445.8125 -2139.2568359375
          569116 5887688.5 -2182.16455078125 568800 5887755.4375 -2204.6181640625
          567358 5888770.625 -2477.906982421875 567814 5888568.375 -2430.78271484375
          567780 5888945.375 -2482.746826171875 563668 5886250.8125 -2232.55419921875
          563622 5886061.4375 -2152.290283203125 563644 5886054.1875 -2152.2353515625
          569978 5885444.0625 -2260.061767578125 569754 5885358.75 -2278.05615234375
          569886 5885158.8125 -2325.63671875 558324 5889612.125 -2333.012939453125
          566946 5888880.25 -2531.322998046875 567100 5888615.4375 -2478.670654296875
          569536 5887878.875 -2202.535888671875 569808 5887827.1875 -2186.60400390625
          569736 5887987.6875 -2209.5732421875 563466 5889067.3125 -2365.031982421875
          563708 5889276.9375 -2369.93505859375 563600 5889312 -2356.42578125
          570830 5883844 -2210.771240234375 570744 5883790.5625 -2222.93994140625
          570844 5883793.125 -2221.511962890625 560812 5889637.625 -2117.243408203125
          560672 5889429.25 -2129.421875 560964 5889375.125 -2152.841552734375
          569478 5888098 -2239.511474609375 569250 5887882.3125 -2217.042236328125
          563540 5889962.125 -2257.310791015625 563338 5889954.375 -2235.79541015625
          563366 5889808.375 -2265.296630859375 558220 5889372.125 -2407.92236328125
          558150 5889103.8125 -2461.475830078125 558394 5889207.625 -2403.076171875
          560764 5887643.625 -2291.68017578125 560966 5887452.9375 -2290.63134765625
          561060 5887761.5625 -2303.296875 561052 5890248.875 -2077.085693359375
          561012 5890280.625 -2070.81640625 560936 5889969.1875 -2094.6201171875
          560666 5887912.8125 -2294.537353515625 560450 5887984.375 -2294.54052734375
          560478 5887742.5625 -2290.462890625 560286 5889873 -2060.381103515625
          560104 5890188.5 -2014.3907470703125 560016 5889973.375 -2047.7520751953125
          562068 5888475.5 -2313.97119140625 562414 5888308.375 -2354.207763671875
          562332 5888745.5 -2301.92578125 564460 5886436.875 -2358.318359375
          564440 5886270.5 -2307.297607421875 564560 5886336.125 -2330.980224609375
          571520 5883494.875 -2175.19287109375 571368 5883616.5 -2194.98291015625
          571252 5883364.375 -2170.556884765625 560344 5891253.0625 -1973.4847412109375
          560556 5891363.0625 -1950.0106201171875 560878 5887903 -2296.077392578125
          560796 5888111.3125 -2287.80908203125 571326 5883258.5625 -2140.36328125
          571848 5882781.8125 -2038.5755615234375 571900 5883091.375 -2123.22802734375
          561370 5889852.375 -2132.306396484375 561612 5889700.75 -2161.544677734375
          561612 5890023 -2132.34912109375 564816 5887791.25 -2560.921630859375
          564652 5888064.9375 -2574.825927734375 564548 5887765.8125 -2560.384765625
          563348 5886431.0625 -2251.248046875 563174 5886334.4375 -2190.107177734375
          563412 5886259.5625 -2197.112060546875 571088 5884305.3125 -2214.746826171875
          571070 5883973.5 -2211.66552734375 571362 5884310.0625 -2225.708984375
          563076 5888432.625 -2399.7421875 562908 5888167.9375 -2414.15576171875