<?xml version="1.0"?>
<VTKFile type="UnstructuredGrid" version="0.1" byte_order="LittleEndian" header_type="UInt32">
  <UnstructuredGrid>
    <FieldData>
      <DataArray type="Int8" Name="OGS_VERSION" NumberOfTuples="40" format="ascii" RangeMin="45" RangeMax="121">
        54 46 50 46 48 45
        49 53 45 103 53 51
        56 49 101 101 99 99
        100 46 100 105 114 116
        121 46 50 48 49 57
        48 52 48 49 49 53
        48 52 49 50
      </DataArray>
    </FieldData>
    <Piece NumberOfPoints="44" NumberOfCells="10">
      <PointData>
        <DataArray type="Float64" Name="temperature" format="ascii" RangeMin="1" RangeMax="1.9">
          1.15 1 1 1.15 1.15 1
          1 1.15 1.3 1.3 1.3 1.3
          1.45 1.45 1.45 1.45 1.6 1.6
          1.6 1.6 1.65 1.65 1.65 1.65
          1.7 1.7 1.7 1.7 1.75 1.75
          1.75 1.75 1.8 1.8 1.8 1.8
          1.85 1.85 1.85 1.85 1.9 1.9
          1.9 1.9
        </DataArray>
      </PointData>
      <CellData>
        <DataArray type="Int32" Name="MaterialIDs" format="ascii" RangeMin="0" RangeMax="1">
          0 0 0 0 1 1
          1 1 1 1
        </DataArray>
      </CellData>
      <Points>
        <DataArray type="Float64" Name="Points" NumberOfComponents="3" format="ascii" RangeMin="0" RangeMax="100.99504938">
          10 10 10 0 10 10
          0 0 10 10 0 10
          10 10 0 0 10 0
          0 0 0 10 0 0
          20 10 10 20 0 10
          20 10 0 20 0 0
          30 10 10 30 0 10
          30 10 0 30 0 0
          40 10 10 40 0 10
          40 10 0 40 0 0
          50 10 10 50 0 10
          50 10 0 50 0 0
          60 10 10 60 0 10
          60 10 0 60 0 0
          70 10 10 70 0 10
          70 10 0 70 0 0
          80 10 10 80 0 10
          80 10 0 80 0 0
          90 10 10 90 0 10
          90 10 0 90 0 0
          100 10 10 100 0 10
          100 10 0 100 0 0
        </DataArray>
      </Points>
      <Cells>
        <DataArray type="Int64" Name="connectivity" format="ascii" RangeMin="0" RangeMax="43">
          4 5 6 7 0 1
          2 3 10 4 7 11
          8 0 3 9 14 10
          11 15 12 8 9 13
          18 14 15 19 16 12
          13 17 22 18 19 23
          20 16 17 21 26 22
          23 27 24 20 21 25
          30 26 27 31 28 24
          25 29 34 30 31 35
          32 28 29 33 38 34
          35 39 36 32 33 37
          42 38 39 43 40 36
          37 41
        </DataArray>
        <DataArray type="Int64" Name="offsets" format="ascii" RangeMin="8" RangeMax="80">
          8 16 24 32 40 48
          56 64 72 80
        </DataArray>
        <DataArray type="UInt8" Name="types" format="ascii" RangeMin="12" RangeMax="12">
          12 12 12 12 12 12
          12 12 12 12
        </DataArray>
      </Cells>
    </Piece>
  </UnstructuredGrid>
</VTKFile>
