<?xml version="1.0"?>
<VTKFile type="UnstructuredGrid" version="1.0" byte_order="LittleEndian" header_type="UInt64">
  <UnstructuredGrid>
    <Piece NumberOfPoints="1331" NumberOfCells="2000">
      <PointData>
      </PointData>
      <CellData>
        <DataArray type="Int32" Name="MaterialIDs" format="ascii" RangeMin="0" RangeMax="9">
          0 0 0 0 0 0
          0 0 0 0 0 0
          0 0 0 0 0 0
          0 0 0 0 0 0
          0 0 0 0 0 0
          0 0 0 0 0 0
          0 0 0 0 0 0
          0 0 0 0 0 0
          0 0 0 0 0 0
          0 0 0 0 0 0
          0 0 0 0 0 0
          0 0 0 0 0 0
          0 0 0 0 0 0
          0 0 0 0 0 0
          0 0 0 0 0 0
          0 0 0 0 0 0
          0 0 0 0 0 0
          0 0 0 0 0 0
          0 0 0 0 0 0
          0 0 0 0 0 0
          0 0 0 0 0 0
          0 0 0 0 0 0
          0 0 0 0 0 0
          0 0 0 0 0 0
          0 0 0 0 0 0
          0 0 0 0 0 0
          0 0 0 0 0 0
          0 0 0 0 0 0
          0 0 0 0 0 0
          0 0 0 0 0 0
          0 0 0 0 0 0
          0 0 0 0 0 0
          0 0 0 0 0 0
          0 0 1 1 1 1
          1 1 1 1 1 1
          1 1 1 1 1 1
          1 1 1 1 1 1
          1 1 1 1 1 1
          1 1 1 1 1 1
          1 1 1 1 1 1
          1 1 1 1 1 1
          1 1 1 1 1 1
          1 1 1 1 1 1
          1 1 1 1 1 1
          1 1 1 1 1 1
          1 1 1 1 1 1
          1 1 1 1 1 1
          1 1 1 1 1 1
          1 1 1 1 1 1
          1 1 1 1 1 1
          1 1 1 1 1 1
          1 1 1 1 1 1
          1 1 1 1 1 1
          1 1 1 1 1 1
          1 1 1 1 1 1
          1 1 1 1 1 1
          1 1 1 1 1 1
          1 1 1 1 1 1
          1 1 1 1 1 1
          1 1 1 1 1 1
          1 1 1 1 1 1
          1 1 1 1 1 1
          1 1 1 1 1 1
          1 1 1 1 1 1
          1 1 1 1 1 1
          1 1 1 1 1 1
          1 1 1 1 2 2
          2 2 2 2 2 2
          2 2 2 2 2 2
          2 2 2 2 2 2
          2 2 2 2 2 2
          2 2 2 2 2 2
          2 2 2 2 2 2
          2 2 2 2 2 2
          2 2 2 2 2 2
          2 2 2 2 2 2
          2 2 2 2 2 2
          2 2 2 2 2 2
          2 2 2 2 2 2
          2 2 2 2 2 2
          2 2 2 2 2 2
          2 2 2 2 2 2
          2 2 2 2 2 2
          2 2 2 2 2 2
          2 2 2 2 2 2
          2 2 2 2 2 2
          2 2 2 2 2 2
          2 2 2 2 2 2
          2 2 2 2 2 2
          2 2 2 2 2 2
          2 2 2 2 2 2
          2 2 2 2 2 2
          2 2 2 2 2 2
          2 2 2 2 2 2
          2 2 2 2 2 2
          2 2 2 2 2 2
          2 2 2 2 2 2
          2 2 2 2 2 2
          2 2 2 2 2 2
          2 2 2 2 2 2
          3 3 3 3 3 3
          3 3 3 3 3 3
          3 3 3 3 3 3
          3 3 3 3 3 3
          3 3 3 3 3 3
          3 3 3 3 3 3
          3 3 3 3 3 3
          3 3 3 3 3 3
          3 3 3 3 3 3
          3 3 3 3 3 3
          3 3 3 3 3 3
          3 3 3 3 3 3
          3 3 3 3 3 3
          3 3 3 3 3 3
          3 3 3 3 3 3
          3 3 3 3 3 3
          3 3 3 3 3 3
          3 3 3 3 3 3
          3 3 3 3 3 3
          3 3 3 3 3 3
          3 3 3 3 3 3
          3 3 3 3 3 3
          3 3 3 3 3 3
          3 3 3 3 3 3
          3 3 3 3 3 3
          3 3 3 3 3 3
          3 3 3 3 3 3
          3 3 3 3 3 3
          3 3 3 3 3 3
          3 3 3 3 3 3
          3 3 3 3 3 3
          3 3 3 3 3 3
          3 3 3 3 3 3
          3 3 4 4 4 4
          4 4 4 4 4 4
          4 4 4 4 4 4
          4 4 4 4 4 4
          4 4 4 4 4 4
          4 4 4 4 4 4
          4 4 4 4 4 4
          4 4 4 4 4 4
          4 4 4 4 4 4
          4 4 4 4 4 4
          4 4 4 4 4 4
          4 4 4 4 4 4
          4 4 4 4 4 4
          4 4 4 4 4 4
          4 4 4 4 4 4
          4 4 4 4 4 4
          4 4 4 4 4 4
          4 4 4 4 4 4
          4 4 4 4 4 4
          4 4 4 4 4 4
          4 4 4 4 4 4
          4 4 4 4 4 4
          4 4 4 4 4 4
          4 4 4 4 4 4
          4 4 4 4 4 4
          4 4 4 4 4 4
          4 4 4 4 4 4
          4 4 4 4 4 4
          4 4 4 4 4 4
          4 4 4 4 4 4
          4 4 4 4 4 4
          4 4 4 4 4 4
          4 4 4 4 4 4
          4 4 4 4 5 5
          5 5 5 5 5 5
          5 5 5 5 5 5
          5 5 5 5 5 5
          5 5 5 5 5 5
          5 5 5 5 5 5
          5 5 5 5 5 5
          5 5 5 5 5 5
          5 5 5 5 5 5
          5 5 5 5 5 5
          5 5 5 5 5 5
          5 5 5 5 5 5
          5 5 5 5 5 5
          5 5 5 5 5 5
          5 5 5 5 5 5
          5 5 5 5 5 5
          5 5 5 5 5 5
          5 5 5 5 5 5
          5 5 5 5 5 5
          5 5 5 5 5 5
          5 5 5 5 5 5
          5 5 5 5 5 5
          5 5 5 5 5 5
          5 5 5 5 5 5
          5 5 5 5 5 5
          5 5 5 5 5 5
          5 5 5 5 5 5
          5 5 5 5 5 5
          5 5 5 5 5 5
          5 5 5 5 5 5
          5 5 5 5 5 5
          5 5 5 5 5 5
          5 5 5 5 5 5
          5 5 5 5 5 5
          6 6 6 6 6 6
          6 6 6 6 6 6
          6 6 6 6 6 6
          6 6 6 6 6 6
          6 6 6 6 6 6
          6 6 6 6 6 6
          6 6 6 6 6 6
          6 6 6 6 6 6
          6 6 6 6 6 6
          6 6 6 6 6 6
          6 6 6 6 6 6
          6 6 6 6 6 6
          6 6 6 6 6 6
          6 6 6 6 6 6
          6 6 6 6 6 6
          6 6 6 6 6 6
          6 6 6 6 6 6
          6 6 6 6 6 6
          6 6 6 6 6 6
          6 6 6 6 6 6
          6 6 6 6 6 6
          6 6 6 6 6 6
          6 6 6 6 6 6
          6 6 6 6 6 6
          6 6 6 6 6 6
          6 6 6 6 6 6
          6 6 6 6 6 6
          6 6 6 6 6 6
          6 6 6 6 6 6
          6 6 6 6 6 6
          6 6 6 6 6 6
          6 6 6 6 6 6
          6 6 6 6 6 6
          6 6 7 7 7 7
          7 7 7 7 7 7
          7 7 7 7 7 7
          7 7 7 7 7 7
          7 7 7 7 7 7
          7 7 7 7 7 7
          7 7 7 7 7 7
          7 7 7 7 7 7
          7 7 7 7 7 7
          7 7 7 7 7 7
          7 7 7 7 7 7
          7 7 7 7 7 7
          7 7 7 7 7 7
          7 7 7 7 7 7
          7 7 7 7 7 7
          7 7 7 7 7 7
          7 7 7 7 7 7
          7 7 7 7 7 7
          7 7 7 7 7 7
          7 7 7 7 7 7
          7 7 7 7 7 7
          7 7 7 7 7 7
          7 7 7 7 7 7
          7 7 7 7 7 7
          7 7 7 7 7 7
          7 7 7 7 7 7
          7 7 7 7 7 7
          7 7 7 7 7 7
          7 7 7 7 7 7
          7 7 7 7 7 7
          7 7 7 7 7 7
          7 7 7 7 7 7
          7 7 7 7 7 7
          7 7 7 7 8 8
          8 8 8 8 8 8
          8 8 8 8 8 8
          8 8 8 8 8 8
          8 8 8 8 8 8
          8 8 8 8 8 8
          8 8 8 8 8 8
          8 8 8 8 8 8
          8 8 8 8 8 8
          8 8 8 8 8 8
          8 8 8 8 8 8
          8 8 8 8 8 8
          8 8 8 8 8 8
          8 8 8 8 8 8
          8 8 8 8 8 8
          8 8 8 8 8 8
          8 8 8 8 8 8
          8 8 8 8 8 8
          8 8 8 8 8 8
          8 8 8 8 8 8
          8 8 8 8 8 8
          8 8 8 8 8 8
          8 8 8 8 8 8
          8 8 8 8 8 8
          8 8 8 8 8 8
          8 8 8 8 8 8
          8 8 8 8 8 8
          8 8 8 8 8 8
          8 8 8 8 8 8
          8 8 8 8 8 8
          8 8 8 8 8 8
          8 8 8 8 8 8
          8 8 8 8 8 8
          8 8 8 8 8 8
          9 9 9 9 9 9
          9 9 9 9 9 9
          9 9 9 9 9 9
          9 9 9 9 9 9
          9 9 9 9 9 9
          9 9 9 9 9 9
          9 9 9 9 9 9
          9 9 9 9 9 9
          9 9 9 9 9 9
          9 9 9 9 9 9
          9 9 9 9 9 9
          9 9 9 9 9 9
          9 9 9 9 9 9
          9 9 9 9 9 9
          9 9 9 9 9 9
          9 9 9 9 9 9
          9 9 9 9 9 9
          9 9 9 9 9 9
          9 9 9 9 9 9
          9 9 9 9 9 9
          9 9 9 9 9 9
          9 9 9 9 9 9
          9 9 9 9 9 9
          9 9 9 9 9 9
          9 9 9 9 9 9
          9 9 9 9 9 9
          9 9 9 9 9 9
          9 9 9 9 9 9
          9 9 9 9 9 9
          9 9 9 9 9 9
          9 9 9 9 9 9
          9 9 9 9 9 9
          9 9 9 9 9 9
          9 9
        </DataArray>
      </CellData>
      <Points>
        <DataArray type="Float64" Name="Points" NumberOfComponents="3" format="ascii" RangeMin="0" RangeMax="17.320508075688775">
          0 0 0 1 0 0
          2 0 0 3 0 0
          4 0 0 5 0 0
          6 0 0 7 0 0
          8 0 0 9 0 0
          10 0 0 0 1 0
          1 1 0 2 1 0
          3 1 0 4 1 0
          5 1 0 6 1 0
          7 1 0 8 1 0
          9 1 0 10 1 0
          0 2 0 1 2 0
          2 2 0 3 2 0
          4 2 0 5 2 0
          6 2 0 7 2 0
          8 2 0 9 2 0
          10 2 0 0 3 0
          1 3 0 2 3 0
          3 3 0 4 3 0
          5 3 0 6 3 0
          7 3 0 8 3 0
          9 3 0 10 3 0
          0 4 0 1 4 0
          2 4 0 3 4 0
          4 4 0 5 4 0
          6 4 0 7 4 0
          8 4 0 9 4 0
          10 4 0 0 5 0
          1 5 0 2 5 0
          3 5 0 4 5 0
          5 5 0 6 5 0
          7 5 0 8 5 0
          9 5 0 10 5 0
          0 6 0 1 6 0
          2 6 0 3 6 0
          4 6 0 5 6 0
          6 6 0 7 6 0
          8 6 0 9 6 0
          10 6 0 0 7 0
          1 7 0 2 7 0
          3 7 0 4 7 0
          5 7 0 6 7 0
          7 7 0 8 7 0
          9 7 0 10 7 0
          0 8 0 1 8 0
          2 8 0 3 8 0
          4 8 0 5 8 0
          6 8 0 7 8 0
          8 8 0 9 8 0
          10 8 0 0 9 0
          1 9 0 2 9 0
          3 9 0 4 9 0
          5 9 0 6 9 0
          7 9 0 8 9 0
          9 9 0 10 9 0
          0 10 0 1 10 0
          2 10 0 3 10 0
          4 10 0 5 10 0
          6 10 0 7 10 0
          8 10 0 9 10 0
          10 10 0 0 0 1
          1 0 1 2 0 1
          3 0 1 4 0 1
          5 0 1 6 0 1
          7 0 1 8 0 1
          9 0 1 10 0 1
          0 1 1 1 1 1
          2 1 1 3 1 1
          4 1 1 5 1 1
          6 1 1 7 1 1
          8 1 1 9 1 1
          10 1 1 0 2 1
          1 2 1 2 2 1
          3 2 1 4 2 1
          5 2 1 6 2 1
          7 2 1 8 2 1
          9 2 1 10 2 1
          0 3 1 1 3 1
          2 3 1 3 3 1
          4 3 1 5 3 1
          6 3 1 7 3 1
          8 3 1 9 3 1
          10 3 1 0 4 1
          1 4 1 2 4 1
          3 4 1 4 4 1
          5 4 1 6 4 1
          7 4 1 8 4 1
          9 4 1 10 4 1
          0 5 1 1 5 1
          2 5 1 3 5 1
          4 5 1 5 5 1
          6 5 1 7 5 1
          8 5 1 9 5 1
          10 5 1 0 6 1
          1 6 1 2 6 1
          3 6 1 4 6 1
          5 6 1 6 6 1
          7 6 1 8 6 1
          9 6 1 10 6 1
          0 7 1 1 7 1
          2 7 1 3 7 1
          4 7 1 5 7 1
          6 7 1 7 7 1
          8 7 1 9 7 1
          10 7 1 0 8 1
          1 8 1 2 8 1
          3 8 1 4 8 1
          5 8 1 6 8 1
          7 8 1 8 8 1
          9 8 1 10 8 1
          0 9 1 1 9 1
          2 9 1 3 9 1
          4 9 1 5 9 1
          6 9 1 7 9 1
          8 9 1 9 9 1
          10 9 1 0 10 1
          1 10 1 2 10 1
          3 10 1 4 10 1
          5 10 1 6 10 1
          7 10 1 8 10 1
          9 10 1 10 10 1
          0 0 2 1 0 2
          2 0 2 3 0 2
          4 0 2 5 0 2
          6 0 2 7 0 2
          8 0 2 9 0 2
          10 0 2 0 1 2
          1 1 2 2 1 2
          3 1 2 4 1 2
          5 1 2 6 1 2
          7 1 2 8 1 2
          9 1 2 10 1 2
          0 2 2 1 2 2
          2 2 2 3 2 2
          4 2 2 5 2 2
          6 2 2 7 2 2
          8 2 2 9 2 2
          10 2 2 0 3 2
          1 3 2 2 3 2
          3 3 2 4 3 2
          5 3 2 6 3 2
          7 3 2 8 3 2
          9 3 2 10 3 2
          0 4 2 1 4 2
          2 4 2 3 4 2
          4 4 2 5 4 2
          6 4 2 7 4 2
          8 4 2 9 4 2
          10 4 2 0 5 2
          1 5 2 2 5 2
          3 5 2 4 5 2
          5 5 2 6 5 2
          7 5 2 8 5 2
          9 5 2 10 5 2
          0 6 2 1 6 2
          2 6 2 3 6 2
          4 6 2 5 6 2
          6 6 2 7 6 2
          8 6 2 9 6 2
          10 6 2 0 7 2
          1 7 2 2 7 2
          3 7 2 4 7 2
          5 7 2 6 7 2
          7 7 2 8 7 2
          9 7 2 10 7 2
          0 8 2 1 8 2
          2 8 2 3 8 2
          4 8 2 5 8 2
          6 8 2 7 8 2
          8 8 2 9 8 2
          10 8 2 0 9 2
          1 9 2 2 9 2
          3 9 2 4 9 2
          5 9 2 6 9 2
          7 9 2 8 9 2
          9 9 2 10 9 2
          0 10 2 1 10 2
          2 10 2 3 10 2
          4 10 2 5 10 2
          6 10 2 7 10 2
          8 10 2 9 10 2
          10 10 2 0 0 3
          1 0 3 2 0 3
          3 0 3 4 0 3
          5 0 3 6 0 3
          7 0 3 8 0 3
          9 0 3 10 0 3
          0 1 3 1 1 3
          2 1 3 3 1 3
          4 1 3 5 1 3
          6 1 3 7 1 3
          8 1 3 9 1 3
          10 1 3 0 2 3
          1 2 3 2 2 3
          3 2 3 4 2 3
          5 2 3 6 2 3
          7 2 3 8 2 3
          9 2 3 10 2 3
          0 3 3 1 3 3
          2 3 3 3 3 3
          4 3 3 5 3 3
          6 3 3 7 3 3
          8 3 3 9 3 3
          10 3 3 0 4 3
          1 4 3 2 4 3
          3 4 3 4 4 3
          5 4 3 6 4 3
          7 4 3 8 4 3
          9 4 3 10 4 3
          0 5 3 1 5 3
          2 5 3 3 5 3
          4 5 3 5 5 3
          6 5 3 7 5 3
          8 5 3 9 5 3
          10 5 3 0 6 3
          1 6 3 2 6 3
          3 6 3 4 6 3
          5 6 3 6 6 3
          7 6 3 8 6 3
          9 6 3 10 6 3
          0 7 3 1 7 3
          2 7 3 3 7 3
          4 7 3 5 7 3
          6 7 3 7 7 3
          8 7 3 9 7 3
          10 7 3 0 8 3
          1 8 3 2 8 3
          3 8 3 4 8 3
          5 8 3 6 8 3
          7 8 3 8 8 3
          9 8 3 10 8 3
          0 9 3 1 9 3
          2 9 3 3 9 3
          4 9 3 5 9 3
          6 9 3 7 9 3
          8 9 3 9 9 3
          10 9 3 0 10 3
          1 10 3 2 10 3
          3 10 3 4 10 3
          5 10 3 6 10 3
          7 10 3 8 10 3
          9 10 3 10 10 3
          0 0 4 1 0 4
          2 0 4 3 0 4
          4 0 4 5 0 4
          6 0 4 7 0 4
          8 0 4 9 0 4
          10 0 4 0 1 4
          1 1 4 2 1 4
          3 1 4 4 1 4
          5 1 4 6 1 4
          7 1 4 8 1 4
          9 1 4 10 1 4
          0 2 4 1 2 4
          2 2 4 3 2 4
          4 2 4 5 2 4
          6 2 4 7 2 4
          8 2 4 9 2 4
          10 2 4 0 3 4
          1 3 4 2 3 4
          3 3 4 4 3 4
          5 3 4 6 3 4
          7 3 4 8 3 4
          9 3 4 10 3 4
          0 4 4 1 4 4
          2 4 4 3 4 4
          4 4 4 5 4 4
          6 4 4 7 4 4
          8 4 4 9 4 4
          10 4 4 0 5 4
          1 5 4 2 5 4
          3 5 4 4 5 4
          5 5 4 6 5 4
          7 5 4 8 5 4
          9 5 4 10 5 4
          0 6 4 1 6 4
          2 6 4 3 6 4
          4 6 4 5 6 4
          6 6 4 7 6 4
          8 6 4 9 6 4
          10 6 4 0 7 4
          1 7 4 2 7 4
          3 7 4 4 7 4
          5 7 4 6 7 4
          7 7 4 8 7 4
          9 7 4 10 7 4
          0 8 4 1 8 4
          2 8 4 3 8 4
          4 8 4 5 8 4
          6 8 4 7 8 4
          8 8 4 9 8 4
          10 8 4 0 9 4
          1 9 4 2 9 4
          3 9 4 4 9 4
          5 9 4 6 9 4
          7 9 4 8 9 4
          9 9 4 10 9 4
          0 10 4 1 10 4
          2 10 4 3 10 4
          4 10 4 5 10 4
          6 10 4 7 10 4
          8 10 4 9 10 4
          10 10 4 0 0 5
          1 0 5 2 0 5
          3 0 5 4 0 5
          5 0 5 6 0 5
          7 0 5 8 0 5
          9 0 5 10 0 5
          0 1 5 1 1 5
          2 1 5 3 1 5
          4 1 5 5 1 5
          6 1 5 7 1 5
          8 1 5 9 1 5
          10 1 5 0 2 5
          1 2 5 2 2 5
          3 2 5 4 2 5
          5 2 5 6 2 5
          7 2 5 8 2 5
          9 2 5 10 2 5
          0 3 5 1 3 5
          2 3 5 3 3 5
          4 3 5 5 3 5
          6 3 5 7 3 5
          8 3 5 9 3 5
          10 3 5 0 4 5
          1 4 5 2 4 5
          3 4 5 4 4 5
          5 4 5 6 4 5
          7 4 5 8 4 5
          9 4 5 10 4 5
          0 5 5 1 5 5
          2 5 5 3 5 5
          4 5 5 5 5 5
          6 5 5 7 5 5
          8 5 5 9 5 5
          10 5 5 0 6 5
          1 6 5 2 6 5
          3 6 5 4 6 5
          5 6 5 6 6 5
          7 6 5 8 6 5
          9 6 5 10 6 5
          0 7 5 1 7 5
          2 7 5 3 7 5
          4 7 5 5 7 5
          6 7 5 7 7 5
          8 7 5 9 7 5
          10 7 5 0 8 5
          1 8 5 2 8 5
          3 8 5 4 8 5
          5 8 5 6 8 5
          7 8 5 8 8 5
          9 8 5 10 8 5
          0 9 5 1 9 5
          2 9 5 3 9 5
          4 9 5 5 9 5
          6 9 5 7 9 5
          8 9 5 9 9 5
          10 9 5 0 10 5
          1 10 5 2 10 5
          3 10 5 4 10 5
          5 10 5 6 10 5
          7 10 5 8 10 5
          9 10 5 10 10 5
          0 0 6 1 0 6
          2 0 6 3 0 6
          4 0 6 5 0 6
          6 0 6 7 0 6
          8 0 6 9 0 6
          10 0 6 0 1 6
          1 1 6 2 1 6
          3 1 6 4 1 6
          5 1 6 6 1 6
          7 1 6 8 1 6
          9 1 6 10 1 6
          0 2 6 1 2 6
          2 2 6 3 2 6
          4 2 6 5 2 6
          6 2 6 7 2 6
          8 2 6 9 2 6
          10 2 6 0 3 6
          1 3 6 2 3 6
          3 3 6 4 3 6
          5 3 6 6 3 6
          7 3 6 8 3 6
          9 3 6 10 3 6
          0 4 6 1 4 6
          2 4 6 3 4 6
          4 4 6 5 4 6
          6 4 6 7 4 6
          8 4 6 9 4 6
          10 4 6 0 5 6
          1 5 6 2 5 6
          3 5 6 4 5 6
          5 5 6 6 5 6
          7 5 6 8 5 6
          9 5 6 10 5 6
          0 6 6 1 6 6
          2 6 6 3 6 6
          4 6 6 5 6 6
          6 6 6 7 6 6
          8 6 6 9 6 6
          10 6 6 0 7 6
          1 7 6 2 7 6
          3 7 6 4 7 6
          5 7 6 6 7 6
          7 7 6 8 7 6
          9 7 6 10 7 6
          0 8 6 1 8 6
          2 8 6 3 8 6
          4 8 6 5 8 6
          6 8 6 7 8 6
          8 8 6 9 8 6
          10 8 6 0 9 6
          1 9 6 2 9 6
          3 9 6 4 9 6
          5 9 6 6 9 6
          7 9 6 8 9 6
          9 9 6 10 9 6
          0 10 6 1 10 6
          2 10 6 3 10 6
          4 10 6 5 10 6
          6 10 6 7 10 6
          8 10 6 9 10 6
          10 10 6 0 0 7
          1 0 7 2 0 7
          3 0 7 4 0 7
          5 0 7 6 0 7
          7 0 7 8 0 7
          9 0 7 10 0 7
          0 1 7 1 1 7
          2 1 7 3 1 7
          4 1 7 5 1 7
          6 1 7 7 1 7
          8 1 7 9 1 7
          10 1 7 0 2 7
          1 2 7 2 2 7
          3 2 7 4 2 7
          5 2 7 6 2 7
          7 2 7 8 2 7
          9 2 7 10 2 7
          0 3 7 1 3 7
          2 3 7 3 3 7
          4 3 7 5 3 7
          6 3 7 7 3 7
          8 3 7 9 3 7
          10 3 7 0 4 7
          1 4 7 2 4 7
          3 4 7 4 4 7
          5 4 7 6 4 7
          7 4 7 8 4 7
          9 4 7 10 4 7
          0 5 7 1 5 7
          2 5 7 3 5 7
          4 5 7 5 5 7
          6 5 7 7 5 7
          8 5 7 9 5 7
          10 5 7 0 6 7
          1 6 7 2 6 7
          3 6 7 4 6 7
          5 6 7 6 6 7
          7 6 7 8 6 7
          9 6 7 10 6 7
          0 7 7 1 7 7
          2 7 7 3 7 7
          4 7 7 5 7 7
          6 7 7 7 7 7
          8 7 7 9 7 7
          10 7 7 0 8 7
          1 8 7 2 8 7
          3 8 7 4 8 7
          5 8 7 6 8 7
          7 8 7 8 8 7
          9 8 7 10 8 7
          0 9 7 1 9 7
          2 9 7 3 9 7
          4 9 7 5 9 7
          6 9 7 7 9 7
          8 9 7 9 9 7
          10 9 7 0 10 7
          1 10 7 2 10 7
          3 10 7 4 10 7
          5 10 7 6 10 7
          7 10 7 8 10 7
          9 10 7 10 10 7
          0 0 8 1 0 8
          2 0 8 3 0 8
          4 0 8 5 0 8
          6 0 8 7 0 8
          8 0 8 9 0 8
          10 0 8 0 1 8
          1 1 8 2 1 8
          3 1 8 4 1 8
          5 1 8 6 1 8
          7 1 8 8 1 8
          9 1 8 10 1 8
          0 2 8 1 2 8
          2 2 8 3 2 8
          4 2 8 5 2 8
          6 2 8 7 2 8
          8 2 8 9 2 8
          10 2 8 0 3 8
          1 3 8 2 3 8
          3 3 8 4 3 8
          5 3 8 6 3 8
          7 3 8 8 3 8
          9 3 8 10 3 8
          0 4 8 1 4 8
          2 4 8 3 4 8
          4 4 8 5 4 8
          6 4 8 7 4 8
          8 4 8 9 4 8
          10 4 8 0 5 8
          1 5 8 2 5 8
          3 5 8 4 5 8
          5 5 8 6 5 8
          7 5 8 8 5 8
          9 5 8 10 5 8
          0 6 8 1 6 8
          2 6 8 3 6 8
          4 6 8 5 6 8
          6 6 8 7 6 8
          8 6 8 9 6 8
          10 6 8 0 7 8
          1 7 8 2 7 8
          3 7 8 4 7 8
          5 7 8 6 7 8
          7 7 8 8 7 8
          9 7 8 10 7 8
          0 8 8 1 8 8
          2 8 8 3 8 8
          4 8 8 5 8 8
          6 8 8 7 8 8
          8 8 8 9 8 8
          10 8 8 0 9 8
          1 9 8 2 9 8
          3 9 8 4 9 8
          5 9 8 6 9 8
          7 9 8 8 9 8
          9 9 8 10 9 8
          0 10 8 1 10 8
          2 10 8 3 10 8
          4 10 8 5 10 8
          6 10 8 7 10 8
          8 10 8 9 10 8
          10 10 8 0 0 9
          1 0 9 2 0 9
          3 0 9 4 0 9
          5 0 9 6 0 9
          7 0 9 8 0 9
          9 0 9 10 0 9
          0 1 9 1 1 9
          2 1 9 3 1 9
          4 1 9 5 1 9
          6 1 9 7 1 9
          8 1 9 9 1 9
          10 1 9 0 2 9
          1 2 9 2 2 9
          3 2 9 4 2 9
          5 2 9 6 2 9
          7 2 9 8 2 9
          9 2 9 10 2 9
          0 3 9 1 3 9
          2 3 9 3 3 9
          4 3 9 5 3 9
          6 3 9 7 3 9
          8 3 9 9 3 9
          10 3 9 0 4 9
          1 4 9 2 4 9
          3 4 9 4 4 9
          5 4 9 6 4 9
          7 4 9 8 4 9
          9 4 9 10 4 9
          0 5 9 1 5 9
          2 5 9 3 5 9
          4 5 9 5 5 9
          6 5 9 7 5 9
          8 5 9 9 5 9
          10 5 9 0 6 9
          1 6 9 2 6 9
          3 6 9 4 6 9
          5 6 9 6 6 9
          7 6 9 8 6 9
          9 6 9 10 6 9
          0 7 9 1 7 9
          2 7 9 3 7 9
          4 7 9 5 7 9
          6 7 9 7 7 9
          8 7 9 9 7 9
          10 7 9 0 8 9
          1 8 9 2 8 9
          3 8 9 4 8 9
          5 8 9 6 8 9
          7 8 9 8 8 9
          9 8 9 10 8 9
          0 9 9 1 9 9
          2 9 9 3 9 9
          4 9 9 5 9 9
          6 9 9 7 9 9
          8 9 9 9 9 9
          10 9 9 0 10 9
          1 10 9 2 10 9
          3 10 9 4 10 9
          5 10 9 6 10 9
          7 10 9 8 10 9
          9 10 9 10 10 9
          0 0 10 1 0 10
          2 0 10 3 0 10
          4 0 10 5 0 10
          6 0 10 7 0 10
          8 0 10 9 0 10
          10 0 10 0 1 10
          1 1 10 2 1 10
          3 1 10 4 1 10
          5 1 10 6 1 10
          7 1 10 8 1 10
          9 1 10 10 1 10
          0 2 10 1 2 10
          2 2 10 3 2 10
          4 2 10 5 2 10
          6 2 10 7 2 10
          8 2 10 9 2 10
          10 2 10 0 3 10
          1 3 10 2 3 10
          3 3 10 4 3 10
          5 3 10 6 3 10
          7 3 10 8 3 10
          9 3 10 10 3 10
          0 4 10 1 4 10
          2 4 10 3 4 10
          4 4 10 5 4 10
          6 4 10 7 4 10
          8 4 10 9 4 10
          10 4 10 0 5 10
          1 5 10 2 5 10
          3 5 10 4 5 10
          5 5 10 6 5 10
          7 5 10 8 5 10
          9 5 10 10 5 10
          0 6 10 1 6 10
          2 6 10 3 6 10
          4 6 10 5 6 10
          6 6 10 7 6 10
          8 6 10 9 6 10
          10 6 10 0 7 10
          1 7 10 2 7 10
          3 7 10 4 7 10
          5 7 10 6 7 10
          7 7 10 8 7 10
          9 7 10 10 7 10
          0 8 10 1 8 10
          2 8 10 3 8 10
          4 8 10 5 8 10
          6 8 10 7 8 10
          8 8 10 9 8 10
          10 8 10 0 9 10
          1 9 10 2 9 10
          3 9 10 4 9 10
          5 9 10 6 9 10
          7 9 10 8 9 10
          9 9 10 10 9 10
          0 10 10 1 10 10
          2 10 10 3 10 10
          4 10 10 5 10 10
          6 10 10 7 10 10
          8 10 10 9 10 10
          10 10 10
          <InformationKey name="L2_NORM_RANGE" location="vtkDataArray" length="2">
            <Value index="0">
              0
            </Value>
            <Value index="1">
              17.320508076
            </Value>
          </InformationKey>
        </DataArray>
      </Points>
      <Cells>
        <DataArray type="Int64" Name="connectivity" format="ascii" RangeMin="0" RangeMax="1330">
          121 133 132 0 12 11
          121 122 133 0 1 12
          122 134 133 1 13 12
          122 123 134 1 2 13
          123 135 134 2 14 13
          123 124 135 2 3 14
          124 136 135 3 15 14
          124 125 136 3 4 15
          125 137 136 4 16 15
          125 126 137 4 5 16
          126 138 137 5 17 16
          126 127 138 5 6 17
          127 139 138 6 18 17
          127 128 139 6 7 18
          128 140 139 7 19 18
          128 129 140 7 8 19
          129 141 140 8 20 19
          129 130 141 8 9 20
          130 142 141 9 21 20
          130 131 142 9 10 21
          132 144 143 11 23 22
          132 133 144 11 12 23
          133 145 144 12 24 23
          133 134 145 12 13 24
          134 146 145 13 25 24
          134 135 146 13 14 25
          135 147 146 14 26 25
          135 136 147 14 15 26
          136 148 147 15 27 26
          136 137 148 15 16 27
          137 149 148 16 28 27
          137 138 149 16 17 28
          138 150 149 17 29 28
          138 139 150 17 18 29
          139 151 150 18 30 29
          139 140 151 18 19 30
          140 152 151 19 31 30
          140 141 152 19 20 31
          141 153 152 20 32 31
          141 142 153 20 21 32
          143 155 154 22 34 33
          143 144 155 22 23 34
          144 156 155 23 35 34
          144 145 156 23 24 35
          145 157 156 24 36 35
          145 146 157 24 25 36
          146 158 157 25 37 36
          146 147 158 25 26 37
          147 159 158 26 38 37
          147 148 159 26 27 38
          148 160 159 27 39 38
          148 149 160 27 28 39
          149 161 160 28 40 39
          149 150 161 28 29 40
          150 162 161 29 41 40
          150 151 162 29 30 41
          151 163 162 30 42 41
          151 152 163 30 31 42
          152 164 163 31 43 42
          152 153 164 31 32 43
          154 166 165 33 45 44
          154 155 166 33 34 45
          155 167 166 34 46 45
          155 156 167 34 35 46
          156 168 167 35 47 46
          156 157 168 35 36 47
          157 169 168 36 48 47
          157 158 169 36 37 48
          158 170 169 37 49 48
          158 159 170 37 38 49
          159 171 170 38 50 49
          159 160 171 38 39 50
          160 172 171 39 51 50
          160 161 172 39 40 51
          161 173 172 40 52 51
          161 162 173 40 41 52
          162 174 173 41 53 52
          162 163 174 41 42 53
          163 175 174 42 54 53
          163 164 175 42 43 54
          165 177 176 44 56 55
          165 166 177 44 45 56
          166 178 177 45 57 56
          166 167 178 45 46 57
          167 179 178 46 58 57
          167 168 179 46 47 58
          168 180 179 47 59 58
          168 169 180 47 48 59
          169 181 180 48 60 59
          169 170 181 48 49 60
          170 182 181 49 61 60
          170 171 182 49 50 61
          171 183 182 50 62 61
          171 172 183 50 51 62
          172 184 183 51 63 62
          172 173 184 51 52 63
          173 185 184 52 64 63
          173 174 185 52 53 64
          174 186 185 53 65 64
          174 175 186 53 54 65
          176 188 187 55 67 66
          176 177 188 55 56 67
          177 189 188 56 68 67
          177 178 189 56 57 68
          178 190 189 57 69 68
          178 179 190 57 58 69
          179 191 190 58 70 69
          179 180 191 58 59 70
          180 192 191 59 71 70
          180 181 192 59 60 71
          181 193 192 60 72 71
          181 182 193 60 61 72
          182 194 193 61 73 72
          182 183 194 61 62 73
          183 195 194 62 74 73
          183 184 195 62 63 74
          184 196 195 63 75 74
          184 185 196 63 64 75
          185 197 196 64 76 75
          185 186 197 64 65 76
          187 199 198 66 78 77
          187 188 199 66 67 78
          188 200 199 67 79 78
          188 189 200 67 68 79
          189 201 200 68 80 79
          189 190 201 68 69 80
          190 202 201 69 81 80
          190 191 202 69 70 81
          191 203 202 70 82 81
          191 192 203 70 71 82
          192 204 203 71 83 82
          192 193 204 71 72 83
          193 205 204 72 84 83
          193 194 205 72 73 84
          194 206 205 73 85 84
          194 195 206 73 74 85
          195 207 206 74 86 85
          195 196 207 74 75 86
          196 208 207 75 87 86
          196 197 208 75 76 87
          198 210 209 77 89 88
          198 199 210 77 78 89
          199 211 210 78 90 89
          199 200 211 78 79 90
          200 212 211 79 91 90
          200 201 212 79 80 91
          201 213 212 80 92 91
          201 202 213 80 81 92
          202 214 213 81 93 92
          202 203 214 81 82 93
          203 215 214 82 94 93
          203 204 215 82 83 94
          204 216 215 83 95 94
          204 205 216 83 84 95
          205 217 216 84 96 95
          205 206 217 84 85 96
          206 218 217 85 97 96
          206 207 218 85 86 97
          207 219 218 86 98 97
          207 208 219 86 87 98
          209 221 220 88 100 99
          209 210 221 88 89 100
          210 222 221 89 101 100
          210 211 222 89 90 101
          211 223 222 90 102 101
          211 212 223 90 91 102
          212 224 223 91 103 102
          212 213 224 91 92 103
          213 225 224 92 104 103
          213 214 225 92 93 104
          214 226 225 93 105 104
          214 215 226 93 94 105
          215 227 226 94 106 105
          215 216 227 94 95 106
          216 228 227 95 107 106
          216 217 228 95 96 107
          217 229 228 96 108 107
          217 218 229 96 97 108
          218 230 229 97 109 108
          218 219 230 97 98 109
          220 232 231 99 111 110
          220 221 232 99 100 111
          221 233 232 100 112 111
          221 222 233 100 101 112
          222 234 233 101 113 112
          222 223 234 101 102 113
          223 235 234 102 114 113
          223 224 235 102 103 114
          224 236 235 103 115 114
          224 225 236 103 104 115
          225 237 236 104 116 115
          225 226 237 104 105 116
          226 238 237 105 117 116
          226 227 238 105 106 117
          227 239 238 106 118 117
          227 228 239 106 107 118
          228 240 239 107 119 118
          228 229 240 107 108 119
          229 241 240 108 120 119
          229 230 241 108 109 120
          242 254 253 121 133 132
          242 243 254 121 122 133
          243 255 254 122 134 133
          243 244 255 122 123 134
          244 256 255 123 135 134
          244 245 256 123 124 135
          245 257 256 124 136 135
          245 246 257 124 125 136
          246 258 257 125 137 136
          246 247 258 125 126 137
          247 259 258 126 138 137
          247 248 259 126 127 138
          248 260 259 127 139 138