<?xml version="1.0"?>
<VTKFile type="UnstructuredGrid" version="0.1" byte_order="LittleEndian" header_type="UInt32">
  <UnstructuredGrid>
    <FieldData>
      <DataArray type="Int8" Name="IntegrationPointMetaData" NumberOfTuples="237" format="ascii" RangeMin="34" RangeMax="125">
        123 34 105 110 116 101
        103 114 97 116 105 111
        110 95 112 111 105 110
        116 95 97 114 114 97
        121 115 34 58 91 123
        34 105 110 116 101 103
        114 97 116 105 111 110
        95 111 114 100 101 114
        34 58 50 44 34 110
        97 109 101 34 58 34
        115 105 103 109 97 95
        105 112 34 44 34 110
        117 109 98 101 114 95
        111 102 95 99 111 109
        112 111 110 101 110 116
        115 34 58 54 125 44
        123 34 105 110 116 101
        103 114 97 116 105 111
        110 95 111 114 100 101
        114 34 58 50 44 34
        110 97 109 101 34 58
        34 101 112 115 105 108
        111 110 95 105 112 34
        44 34 110 117 109 98
        101 114 95 111 102 95
        99 111 109 112 111 110
        101 110 116 115 34 58
        54 125 44 123 34 105
        110 116 101 103 114 97
        116 105 111 110 95 111
        114 100 101 114 34 58
        50 44 34 110 97 109
        101 34 58 34 101 112
        115 105 108 111 110 95
        109 95 105 112 34 44
        34 110 117 109 98 101
        114 95 111 102 95 99
        111 109 112 111 110 101
        110 116 115 34 58 54
        125 93 125
      </DataArray>
      <DataArray type="Int8" Name="OGS_VERSION" NumberOfTuples="40" format="ascii" RangeMin="45" RangeMax="121">
        54 46 50 46 48 45
        49 53 45 103 53 51
        56 49 101 101 99 99
        100 46 100 105 114 116
        121 46 50 48 49 57
        48 52 48 49 49 53
        48 52 49 50
      </DataArray>
      <DataArray type="Float64" Name="epsilon_ip" NumberOfComponents="6" NumberOfTuples="5400" format="ascii" RangeMin="5.0806957547e-09" RangeMax="0.002473755649">
        -0.002473755649 1.4026392575e-17 3.4007728099e-18 3.4273467905e-19 3.2829959678e-18 -3.1945772311e-19
        -0.002473755649 4.1421108012e-18 3.4527215038e-35 2.1309438473e-21 5.7364194758e-18 -5.2232880656e-19
        -0.002473755649 -5.742170973e-18 -3.4007728099e-18 -2.3605358267e-19 3.2829959678e-18 -2.0925225879e-19
        -0.002473755649 -3.572186591e-35 -6.4129212225e-18 8.6701872423e-19 5.7540664113e-18 1.0106835935e-19
        -0.002473755649 -7.144373182e-35 7.09335226e-35 1.0355396912e-19 8.2074899194e-18 1.6282948723e-19
        -0.002473755649 -3.572186591e-35 6.4129212225e-18 -5.6587677566e-19 5.7540664113e-18 4.1174085256e-20
        -0.002473755649 -1.4026392575e-17 -1.6226615255e-17 5.9189485927e-19 3.2829959678e-18 6.0963902471e-19
        -0.002473755649 -4.1421108012e-18 -2.466735725e-34 9.6763896908e-20 5.7364194758e-18 9.2505824718e-19
        -0.002473755649 5.742170973e-18 1.6226615255e-17 -3.076272402e-19 3.2829959678e-18 3.5478888846e-19
        -0.0023878557379 1.4106213498e-17 3.4527674662e-18 4.0262895314e-19 3.3061986555e-18 -7.0996839017e-19
        -0.0023878557379 4.1528123117e-18 -2.8576073066e-34 -1.7515610746e-19 5.7771463421e-18 -7.2078175146e-19
        -0.0023878557379 -5.8005888746e-18 -3.4527674662e-18 -3.4805587521e-19 3.3061986555e-18 -2.2123111361e-19
        -0.0023878557379 0 -6.4310232803e-18 1.3791147677e-18 5.794548952e-18 2.615850139e-19
        -0.0023878557379 0 0 1.0355396912e-19 8.2654966386e-18 1.5564217434e-19
        -0.0023878557379 0 6.4310232803e-18 -7.6232999468e-19 5.794548952e-18 -1.1215525641e-19
        -0.0023878557379 -1.4106213498e-17 -1.6314814027e-17 1.528641306e-18 3.3061986555e-18 1.5721400093e-18
        -0.0023878557379 -4.1528123117e-18 8.6046970516e-34 2.6566574984e-19 5.7771463421e-18 1.4223836198e-18
        -0.0023878557379 5.8005888746e-18 1.6314814027e-17 -6.3554839084e-19 3.3061986555e-18 3.9581646621e-19
        -0.0023019558267 1.4186034421e-17 3.5047621225e-18 2.2055035991e-19 3.3294013432e-18 -9.2079623497e-19
        -0.0023019558267 4.1635138222e-18 -1.8790925232e-36 -3.764008684e-19 5.8178732083e-18 -8.1440996646e-19
        -0.0023019558267 -5.8590067763e-18 -3.5047621225e-18 -3.5524318811e-19 3.3294013432e-18 -1.1581719121e-19
        -0.0023019558267 0 -6.449125338e-18 1.6402538027e-18 5.8350314928e-18 3.2866660088e-19
        -0.0023019558267 0 2.6168413341e-36 3.1680840218e-20 8.3235033579e-18 1.3091187504e-19
        -0.0023019558267 0 6.449125338e-18 -8.5816083322e-19 5.8350314928e-18 -2.2715226266e-19
        -0.0023019558267 -1.4186034421e-17 -1.6403012799e-17 2.2449768241e-18 3.3294013432e-18 2.3280057483e-18
        -0.0023019558267 -4.1635138222e-18 2.941623973e-34 3.5191350453e-19 5.8178732083e-18 1.7048914461e-18
        -0.0023019558267 5.8590067763e-18 1.6403012799e-17 -8.5116777756e-19 3.3294013432e-18 2.7243426159e-19
        -0.0022538266281 1.4237047553e-17 3.5428834215e-18 2.8474316191e-19 3.3473373919e-18 -1.1114655585e-18
        -0.0022538266281 4.1617048265e-18 2.9746835141e-35 -4.2773813987e-19 5.8495077982e-18 -1.027268472e-18
        -0.0022538266281 -5.9136379e-18 -3.5428834215e-18 -3.8135898893e-19 3.3473373919e-18 -1.5794871498e-19
        -0.0022538266281 -3.3824230406e-35 -6.4657982036e-18 1.746830961e-18 5.8661730736e-18 3.0793394012e-19
        -0.0022538266281 -7.3436144227e-35 6.950994293e-35 -2.3681493982e-19 8.3683434798e-18 3.0976962543e-19
        -0.0022538266281 -3.9917624358e-35 6.4657982036e-18 -1.523890433e-18 5.8661730736e-18 -4.6640162487e-20
        -0.0022538266281 -1.4237047553e-17 -1.6474479829e-17 2.3373199349e-18 3.3473373919e-18 2.4239038464e-18
        -0.0022538266281 -4.1617048265e-18 -2.7879764823e-34 1.3766380754e-19 5.8495077982e-18 2.3608150199e-18
        -0.0022538266281 5.9136379e-18 1.6474479829e-17 -1.2540185624e-18 3.3473373919e-18 6.504343906e-19
        -0.0021741065375 1.4332532835e-17 3.6218922917e-18 4.1411479394e-19 3.3857717865e-18 -1.1066740166e-18
        -0.0021741065375 4.1447867174e-18 -3.1563214176e-34 1.8318345584e-19 5.9174929368e-18 -9.4559030962e-19
        -0.0021741065375 -6.0429594003e-18 -3.6218922917e-18 -5.7330966109e-20 3.3857717865e-18 -1.420245717e-20
        -0.0021741065375 0 -6.5049923094e-18 1.5767312226e-18 5.9327083159e-18 -2.9100880077e-19
        -0.0021741065375 0 -1.6997716882e-35 -2.2723185597e-19 8.4644294662e-18 3.8365252598e-19
        -0.0021741065375 0 6.5049923094e-18 -1.7053700835e-18 5.9327083159e-18 4.1813940445e-19
        -0.0021741065375 -1.4332532835e-17 -1.6631876911e-17 1.7797042432e-18 3.3857717865e-18 1.7177503549e-18
        -0.0021741065375 -4.1447867174e-18 8.4423720531e-34 -3.3430307229e-19 5.9174929368e-18 2.4613795005e-18
        -0.0021741065375 6.0429594003e-18 1.6631876911e-17 -2.1751924979e-18 3.3857717865e-18 1.6818137904e-18
        -0.0020943864469 1.4428018117e-17 3.7009011619e-18 5.5306950983e-19 3.424206181e-18 -1.0300093457e-18
        -0.0020943864469 4.1278686084e-18 -5.710766872e-36 5.5692372616e-19 5.9854780753e-18 -8.3082490297e-19
        -0.0020943864469 -6.1722809005e-18 -3.7009011619e-18 3.4515855577e-19 3.424206181e-18 1.5829305221e-19
        -0.0020943864469 0 -6.5441864153e-18 1.3419456682e-18 5.9992435582e-18 -5.9766748411e-19
        -0.0020943864469 0 0 -2.1764877212e-19 8.5605154525e-18 3.6494955746e-19
        -0.0020943864469 0 6.5441864153e-18 -1.8778655929e-18 5.9992435582e-18 8.7812742945e-19
        -0.0020943864469 -1.4428018117e-17 -1.6789273992e-17 1.2047192119e-18 3.424206181e-18 9.463121046e-19
        -0.0020943864469 -4.1278686084e-18 2.8482989306e-34 -8.2304034885e-19 5.9854780753e-18 2.5286154872e-18
        -0.0020943864469 6.1722809005e-18 1.6789273992e-17 -2.7645521549e-18 3.424206181e-18 2.7527234111e-18
        -0.0020497654265 1.4462625897e-17 3.7298528438e-18 4.6027235132e-19 3.4434258708e-18 -8.3492451944e-19
        -0.0020497654265 4.1061839086e-18 3.4648196565e-35 6.4172435876e-19 6.0194541799e-18 -2.4287839329e-19
        -0.0020497654265 -6.2502580797e-18 -3.7298528438e-18 7.6807363404e-19 3.4434258708e-18 5.0670722016e-19
        -0.0020497654265 -3.8699161642e-35 -6.5742603926e-18 6.2061655262e-19 6.0325363679e-18 -8.8341354543e-19
        -0.0020497654265 -7.2774801835e-35 7.2159718178e-35 -5.3750834452e-19 8.608564677e-18 6.4697165391e-19
        -0.0020497654265 -2.991221849e-35 6.5742603926e-18 -2.0142707798e-18 6.0325363679e-18 1.325487283e-18
        -0.0020497654265 -1.4462625897e-17 -1.6878373629e-17 6.3636151715e-19 3.4434258708e-18 3.3546026831e-19
        -0.0020497654265 -4.1061839086e-18 -2.4991919384e-34 -1.2724966411e-18 6.0194541799e-18 2.4790628375e-18
        -0.0020497654265 6.2502580797e-18 1.6878373629e-17 -3.2532279283e-18 3.4434258708e-18 3.0594518539e-18
        -0.001975922869 1.4486069962e-17 3.7503361871e-18 6.1479957847e-19 3.4710397801e-18 -8.7325685485e-19
        -0.001975922869 4.0485827277e-18 -3.0332126172e-34 1.3125402286e-18 6.0682276417e-18 2.8148660285e-21
        -0.001975922869 -6.3889045064e-18 -3.7503361871e-18 1.4975858924e-18 3.4710397801e-18 1.043359916e-18
        -0.001975922869 0 -6.6384152593e-18 3.7265425789e-19 6.0804115886e-18 -1.108616016e-18
        -0.001975922869 8.3268434057e-36 1.8548492246e-35 -5.5667451223e-19 8.6775994502e-18 6.6123174859e-19
        -0.001975922869 0 6.6384152593e-18 -2.0082813524e-18 6.0804115886e-18 1.6704783017e-18
        -0.001975922869 -1.4486069962e-17 -1.7027166706e-17 -1.0872325252e-19 3.4710397801e-18 -4.1441604329e-19
        -0.001975922869 -4.0485827277e-18 8.7957098072e-34 -1.7636296887e-18 6.0682276417e-18 2.4511885303e-18
        -0.001975922869 6.3889045064e-18 1.7027166706e-17 -3.9599803626e-18 3.4710397801e-18 3.7446423495e-18
        -0.0019020803115 1.4509514027e-17 3.7708195304e-18 6.6271499775e-19 3.4986536894e-18 -4.5160116526e-19
        -0.0019020803115 3.9909815467e-18 2.9610780448e-36 2.0504376853e-18 6.1170011035e-18 3.3619503216e-19
[...]
      <PointData>
        <DataArray type="Float64" Name="displacement" NumberOfComponents="3" format="ascii" RangeMin="0" RangeMax="0.00023208849551">
          -2.38785335e-05 0 0 0 0 0
          0 0 0 -2.38785335e-05 0 0
          -2.38785335e-05 0 0 0 0 0
          0 0 0 -2.38785335e-05 0 0
          -4.5619620617e-05 0 0 -4.5619620617e-05 0 0
          -4.5619620617e-05 0 0 -4.5619620617e-05 0 0
          -6.5378849309e-05 0 0 -6.5378849309e-05 0 0
          -6.5378849309e-05 0 0 -6.5378849309e-05 0 0
          -8.3304118533e-05 0 0 -8.3304118533e-05 0 0
          -8.3304118533e-05 0 0 -8.3304118533e-05 0 0
          -9.9535603331e-05 0 0 -9.9535603331e-05 0 0
          -9.9535603331e-05 0 0 -9.9535603331e-05 0 0
          -0.00011420588067 0 0 -0.00011420588067 0 0
          -0.00011420588067 0 0 -0.00011420588067 0 0
          -0.00012744005567 0 0 -0.00012744005567 0 0
          -0.00012744005567 0 0 -0.00012744005567 0 0
          -0.0001393559098 0 0 -0.0001393559098 0 0
          -0.0001393559098 0 0 -0.0001393559098 0 0
          -0.00015006406986 0 0 -0.00015006406986 0 0
          -0.00015006406986 0 0 -0.00015006406986 0 0
          -0.00015966819603 0 0 -0.00015966819603 0 0
          -0.00015966819603 0 0 -0.00015966819603 0 0
          -0.00016826518739 0 0 -0.00016826518739 0 0
          -0.00016826518739 0 0 -0.00016826518739 0 0
          -0.00017594540307 0 0 -0.00017594540307 0 0
          -0.00017594540307 0 0 -0.00017594540307 0 0
          -0.00018279289712 0 0 -0.00018279289712 0 0
          -0.00018279289712 0 0 -0.00018279289712 0 0
          -0.00018888566498 0 0 -0.00018888566498 0 0
          -0.00018888566498 0 0 -0.00018888566498 0 0
          -0.00019429589963 0 0 -0.00019429589963 0 0
          -0.00019429589963 0 0 -0.00019429589963 0 0
          -0.00019909025519 0 0 -0.00019909025519 0 0
          -0.00019909025519 0 0 -0.00019909025519 0 0
          -0.00020333011606 0 0 -0.00020333011606 0 0
          -0.00020333011606 0 0 -0.00020333011606 0 0
          -0.00020707186948 0 0 -0.00020707186948 0 0
          -0.00020707186948 0 0 -0.00020707186948 0 0
          -0.00021036717956 0 0 -0.00021036717956 0 0
          -0.00021036717956 0 0 -0.00021036717956 0 0
          -0.00021326326098 0 0 -0.00021326326098 0 0
          -0.00021326326098 0 0 -0.00021326326098 0 0
          -0.00021580315048 0 0 -0.00021580315048 0 0
          -0.00021580315048 0 0 -0.00021580315048 0 0
          -0.00021802597469 0 0 -0.00021802597469 0 0
          -0.00021802597469 0 0 -0.00021802597469 0 0
          -0.00021996721264 0 0 -0.00021996721264 0 0
          -0.00021996721264 0 0 -0.00021996721264 0 0
          -0.00022165895171 0 0 -0.00022165895171 0 0
          -0.00022165895171 0 0 -0.00022165895171 0 0
          -0.00022313013582 0 0 -0.00022313013582 0 0
          -0.00022313013582 0 0 -0.00022313013582 0 0
          -0.00022440680487 0 0 -0.00022440680487 0 0
          -0.00022440680487 0 0 -0.00022440680487 0 0
          -0.0002255123245 0 0 -0.0002255123245 0 0
          -0.0002255123245 0 0 -0.0002255123245 0 0
          -0.00022646760558 0 0 -0.00022646760558 0 0
          -0.00022646760558 0 0 -0.00022646760558 0 0
          -0.00022729131286 0 0 -0.00022729131286 0 0
          -0.00022729131286 0 0 -0.00022729131286 0 0
          -0.00022800006236 0 0 -0.00022800006236 0 0
          -0.00022800006236 0 0 -0.00022800006236 0 0
          -0.00022860860734 0 0 -0.00022860860734 0 0
          -0.00022860860734 0 0 -0.00022860860734 0 0
          -0.00022913001267 0 0 -0.00022913001267 0 0
          -0.00022913001267 0 0 -0.00022913001267 0 0
          -0.00022957581765 0 0 -0.00022957581765 0 0
          -0.00022957581765 0 0 -0.00022957581765 0 0
          -0.00022995618744 0 0 -0.00022995618744 0 0
          -0.00022995618744 0 0 -0.00022995618744 0 0
          -0.00023028005324 0 0 -0.00023028005324 0 0
          -0.00023028005324 0 0 -0.00023028005324 0 0
          -0.00023055524156 0 0 -0.00023055524156 0 0
          -0.00023055524156 0 0 -0.00023055524156 0 0
          -0.000230788593 0 0 -0.000230788593 0 0
          -0.000230788593 0 0 -0.000230788593 0 0
          -0.0002309860709 0 0 -0.0002309860709 0 0
          -0.0002309860709 0 0 -0.0002309860709 0 0
          -0.00023115286036 0 0 -0.00023115286036 0 0
          -0.00023115286036 0 0 -0.00023115286036 0 0
          -0.00023129345816 0 0 -0.00023129345816 0 0
          -0.00023129345816 0 0 -0.00023129345816 0 0
          -0.0002314117541 0 0 -0.0002314117541 0 0
          -0.0002314117541 0 0 -0.0002314117541 0 0
          -0.00023151110428 0 0 -0.00023151110428 0 0
          -0.00023151110428 0 0 -0.00023151110428 0 0
          -0.00023159439696 0 0 -0.00023159439696 0 0
          -0.00023159439696 0 0 -0.00023159439696 0 0
          -0.00023166411142 0 0 -0.00023166411142 0 0
          -0.00023166411142 0 0 -0.00023166411142 0 0
          -0.00023172237052 0 0 -0.00023172237052 0 0
          -0.00023172237052 0 0 -0.00023172237052 0 0
          -0.00023177098732 0 0 -0.00023177098732 0 0
          -0.00023177098732 0 0 -0.00023177098732 0 0
          -0.00023181150643 0 0 -0.00023181150643 0 0
          -0.00023181150643 0 0 -0.00023181150643 0 0
          -0.00023184524047 0 0 -0.00023184524047 0 0
          -0.00023184524047 0 0 -0.00023184524047 0 0
          -0.00023187330214 0 0 -0.00023187330214 0 0
          -0.00023187330214 0 0 -0.00023187330214 0 0
          -0.00023189663235 0 0 -0.00023189663235 0 0
          -0.00023189663235 0 0 -0.00023189663235 0 0
          -0.00023191602476 0 0 -0.00023191602476 0 0
          -0.00023191602476 0 0 -0.00023191602476 0 0
          -0.00023193214723 0 0 -0.00023193214723 0 0
          -0.00023193214723 0 0 -0.00023193214723 0 0
          -0.00023194556038 0 0 -0.00023194556038 0 0
          -0.00023194556038 0 0 -0.00023194556038 0 0
          -0.00023195673365 0 0 -0.00023195673365 0 0
          -0.00023195673365 0 0 -0.00023195673365 0 0
          -0.00023196605922 0 0 -0.00023196605922 0 0
          -0.00023196605922 0 0 -0.00023196605922 0 0
          -0.00023197386396 0 0 -0.00023197386396 0 0
          -0.00023197386396 0 0 -0.00023197386396 0 0
          -0.00023198041959 0 0 -0.00023198041959 0 0
          -0.00023198041959 0 0 -0.00023198041959 0 0
          -0.00023198595154 0 0 -0.00023198595154 0 0
          -0.00023198595154 0 0 -0.00023198595154 0 0
          -0.00023199064633 0 0 -0.00023199064633 0 0
          -0.00023199064633 0 0 -0.00023199064633 0 0
          -0.00023199465798 0 0 -0.00023199465798 0 0
          -0.00023199465798 0 0 -0.00023199465798 0 0
          -0.00023199811335 0 0 -0.00023199811335 0 0
          -0.00023199811335 0 0 -0.00023199811335 0 0
          -0.00023200111668 0 0 -0.00023200111668 0 0
          -0.00023200111668 0 0 -0.00023200111668 0 0
          -0.00023200375348 0 0 -0.00023200375348 0 0
          -0.00023200375348 0 0 -0.00023200375348 0 0
          -0.00023200609368 0 0 -0.00023200609368 0 0
          -0.00023200609368 0 0 -0.00023200609368 0 0
          -0.00023200819438 0 0 -0.00023200819438 0 0
          -0.00023200819438 0 0 -0.00023200819438 0 0
          -0.00023201010206 0 0 -0.00023201010206 0 0
          -0.00023201010206 0 0 -0.00023201010206 0 0
          -0.00023201185453 0 0 -0.00023201185453 0 0
          -0.00023201185453 0 0 -0.00023201185453 0 0
          -0.00023201348242 0 0 -0.00023201348242 0 0
          -0.00023201348242 0 0 -0.00023201348242 0 0
          -0.00023201501054 0 0 -0.00023201501054 0 0
          -0.00023201501054 0 0 -0.00023201501054 0 0
          -0.0002320164589 0 0 -0.0002320164589 0 0
          -0.0002320164589 0 0 -0.0002320164589 0 0
          -0.00023201784363 0 0 -0.00023201784363 0 0
          -0.00023201784363 0 0 -0.00023201784363 0 0
          -0.00023201917771 0 0 -0.00023201917771 0 0
          -0.00023201917771 0 0 -0.00023201917771 0 0
          -0.00023202047152 0 0 -0.00023202047152 0 0
          -0.00023202047152 0 0 -0.00023202047152 0 0
          -0.00023202173341 0 0 -0.00023202173341 0 0
          -0.00023202173341 0 0 -0.00023202173341 0 0
          -0.00023202297003 0 0 -0.00023202297003 0 0
          -0.00023202297003 0 0 -0.00023202297003 0 0
          -0.00023202418669 0 0 -0.00023202418669 0 0
          -0.00023202418669 0 0 -0.00023202418669 0 0
          -0.0002320253876 0 0 -0.0002320253876 0 0
          -0.0002320253876 0 0 -0.0002320253876 0 0
          -0.00023202657612 0 0 -0.00023202657612 0 0
          -0.00023202657612 0 0 -0.00023202657612 0 0
          -0.00023202775491 0 0 -0.00023202775491 0 0
          -0.00023202775491 0 0 -0.00023202775491 0 0
          -0.00023202892606 0 0 -0.00023202892606 0 0
          -0.00023202892606 0 0 -0.00023202892606 0 0
          -0.00023203009124 0 0 -0.00023203009124 0 0
          -0.00023203009124 0 0 -0.00023203009124 0 0
          -0.00023203125176 0 0 -0.00023203125176 0 0
          -0.00023203125176 0 0 -0.00023203125176 0 0
          -0.00023203240863 0 0 -0.00023203240863 0 0
          -0.00023203240863 0 0 -0.00023203240863 0 0
          -0.00023203356267 0 0 -0.00023203356267 0 0
          -0.00023203356267 0 0 -0.00023203356267 0 0
          -0.00023203471451 0 0 -0.00023203471451 0 0
          -0.00023203471451 0 0 -0.00023203471451 0 0
          -0.00023203586465 0 0 -0.00023203586465 0 0
          -0.00023203586465 0 0 -0.00023203586465 0 0
          -0.00023203701346 0 0 -0.00023203701346 0 0
          -0.00023203701346 0 0 -0.00023203701346 0 0
          -0.00023203816125 0 0 -0.00023203816125 0 0
          -0.00023203816125 0 0 -0.00023203816125 0 0
          -0.00023203930825 0 0 -0.00023203930825 0 0
          -0.00023203930825 0 0 -0.00023203930825 0 0
          -0.00023204045464 0 0 -0.00023204045464 0 0
          -0.00023204045464 0 0 -0.00023204045464 0 0
          -0.00023204160056 0 0 -0.00023204160056 0 0
          -0.00023204160056 0 0 -0.00023204160056 0 0
          -0.00023204274612 0 0 -0.00023204274612 0 0
          -0.00023204274612 0 0 -0.00023204274612 0 0
          -0.0002320438914 0 0 -0.0002320438914 0 0
          -0.0002320438914 0 0 -0.0002320438914 0 0
          -0.00023204503647 0 0 -0.00023204503647 0 0
          -0.00023204503647 0 0 -0.00023204503647 0 0
          -0.00023204618138 0 0 -0.00023204618138 0 0
          -0.00023204618138 0 0 -0.00023204618138 0 0
          -0.00023204732615 0 0 -0.00023204732615 0 0
          -0.00023204732615 0 0 -0.00023204732615 0 0
          -0.00023204847082 0 0 -0.00023204847082 0 0
          -0.00023204847082 0 0 -0.00023204847082 0 0
          -0.00023204961541 0 0 -0.00023204961541 0 0
          -0.00023204961541 0 0 -0.00023204961541 0 0
          -0.00023205075992 0 0 -0.00023205075992 0 0
          -0.00023205075992 0 0 -0.00023205075992 0 0
          -0.00023205190437 0 0 -0.00023205190437 0 0
          -0.00023205190437 0 0 -0.00023205190437 0 0
          -0.00023205304876 0 0 -0.00023205304876 0 0
          -0.00023205304876 0 0 -0.00023205304876 0 0
          -0.00023205419309 0 0 -0.00023205419309 0 0
          -0.00023205419309 0 0 -0.00023205419309 0 0
          -0.00023205533734 0 0 -0.00023205533734 0 0
          -0.00023205533734 0 0 -0.00023205533734 0 0
          -0.00023205648151 0 0 -0.00023205648151 0 0
          -0.00023205648151 0 0 -0.00023205648151 0 0
          -0.00023205762558 0 0 -0.00023205762558 0 0
          -0.00023205762558 0 0 -0.00023205762558 0 0
          -0.00023205876952 0 0 -0.00023205876952 0 0
          -0.00023205876952 0 0 -0.00023205876952 0 0
          -0.00023205991329 0 0 -0.00023205991329 0 0
          -0.00023205991329 0 0 -0.00023205991329 0 0
          -0.00023206105684 0 0 -0.00023206105684 0 0
          -0.00023206105684 0 0 -0.00023206105684 0 0
          -0.00023206220012 0 0 -0.00023206220012 0 0
          -0.00023206220012 0 0 -0.00023206220012 0 0
          -0.00023206334304 0 0 -0.00023206334304 0 0
          -0.00023206334304 0 0 -0.00023206334304 0 0
          -0.00023206448549 0 0 -0.00023206448549 0 0
          -0.00023206448549 0 0 -0.00023206448549 0 0
          -0.00023206562733 0 0 -0.00023206562733 0 0
          -0.00023206562733 0 0 -0.00023206562733 0 0
          -0.00023206676837 0 0 -0.00023206676837 0 0
          -0.00023206676837 0 0 -0.00023206676837 0 0
          -0.0002320679084 0 0 -0.0002320679084 0 0
          -0.0002320679084 0 0 -0.0002320679084 0 0
          -0.00023206904711 0 0 -0.00023206904711 0 0
          -0.00023206904711 0 0 -0.00023206904711 0 0
          -0.0002320701841 0 0 -0.0002320701841 0 0
          -0.0002320701841 0 0 -0.0002320701841 0 0
          -0.00023207131889 0 0 -0.00023207131889 0 0
          -0.00023207131889 0 0 -0.00023207131889 0 0
          -0.00023207245085 0 0 -0.00023207245085 0 0
          -0.00023207245085 0 0 -0.00023207245085 0 0
          -0.00023207357917 0 0 -0.00023207357917 0 0
          -0.00023207357917 0 0 -0.00023207357917 0 0
          -0.00023207470281 0 0 -0.00023207470281 0 0
          -0.00023207470281 0 0 -0.00023207470281 0 0
          -0.00023207582048 0 0 -0.00023207582048 0 0
          -0.00023207582048 0 0 -0.00023207582048 0 0
          -0.00023207693051 0 0 -0.00023207693051 0 0
          -0.00023207693051 0 0 -0.00023207693051 0 0
          -0.0002320780308 0 0 -0.0002320780308 0 0
          -0.0002320780308 0 0 -0.0002320780308 0 0
          -0.00023207911869 0 0 -0.00023207911869 0 0
          -0.00023207911869 0 0 -0.00023207911869 0 0
          -0.00023208019083 0 0 -0.00023208019083 0 0
          -0.00023208019083 0 0 -0.00023208019083 0 0
          -0.00023208124299 0 0 -0.00023208124299 0 0
          -0.00023208124299 0 0 -0.00023208124299 0 0
          -0.00023208226985 0 0 -0.00023208226985 0 0
          -0.00023208226985 0 0 -0.00023208226985 0 0
          -0.00023208326477 0 0 -0.00023208326477 0 0
          -0.00023208326477 0 0 -0.00023208326477 0 0
          -0.0002320842194 0 0 -0.0002320842194 0 0
          -0.0002320842194 0 0 -0.0002320842194 0 0
          -0.00023208512333 0 0 -0.00023208512333 0 0
          -0.00023208512333 0 0 -0.00023208512333 0 0
          -0.00023208596358 0 0 -0.00023208596358 0 0
          -0.00023208596358 0 0 -0.00023208596358 0 0
          -0.00023208672401 0 0 -0.00023208672401 0 0
          -0.00023208672401 0 0 -0.00023208672401 0 0
          -0.00023208738458 0 0 -0.00023208738458 0 0
          -0.00023208738458 0 0 -0.00023208738458 0 0
          -0.00023208792048 0 0 -0.00023208792048 0 0
          -0.00023208792048 0 0 -0.00023208792048 0 0
          -0.00023208830102 0 0 -0.00023208830102 0 0
          -0.00023208830102 0 0 -0.00023208830102 0 0
          -0.00023208848839 0 0 -0.00023208848839 0 0
          -0.00023208848839 0 0 -0.00023208848839 0 0
          -0.00023208843604 0 0 -0.00023208843604 0 0
          -0.00023208843604 0 0 -0.00023208843604 0 0
          -0.00023208808682 0 0 -0.00023208808682 0 0
          -0.00023208808682 0 0 -0.00023208808682 0 0
          -0.00023208737073 0 0 -0.00023208737073 0 0
          -0.00023208737073 0 0 -0.00023208737073 0 0
          -0.00023208620219 0 0 -0.00023208620219 0 0
          -0.00023208620219 0 0 -0.00023208620219 0 0
          -0.00023208447684 0 0 -0.00023208447684 0 0
          -0.00023208447684 0 0 -0.00023208447684 0 0
          -0.00023208206767 0 0 -0.00023208206767 0 0
          -0.00023208206767 0 0 -0.00023208206767 0 0
          -0.00023207882053 0 0 -0.00023207882053 0 0
          -0.00023207882053 0 0 -0.00023207882053 0 0
          -0.00023207454866 0 0 -0.00023207454866 0 0
          -0.00023207454866 0 0 -0.00023207454866 0 0
          -0.00023206902641 0 0 -0.00023206902641 0 0
          -0.00023206902641 0 0 -0.00023206902641 0 0
          -0.00023206198172 0 0 -0.00023206198172 0 0
          -0.00023206198172 0 0 -0.00023206198172 0 0
          -0.00023205308735 0 0 -0.00023205308735 0 0
          -0.00023205308735 0 0 -0.00023205308735 0 0
          -0.00023204195066 0 0 -0.00023204195066 0 0
          -0.00023204195066 0 0 -0.00023204195066 0 0
          -0.00023202810161 0 0 -0.00023202810161 0 0
          -0.00023202810161 0 0 -0.00023202810161 0 0
          -0.00023201097888 0 0 -0.00023201097888 0 0
          -0.00023201097888 0 0 -0.00023201097888 0 0
          -0.00023198991378 0 0 -0.00023198991378 0 0
          -0.00023198991378 0 0 -0.00023198991378 0 0
          -0.00023196411159 0 0 -0.00023196411159 0 0
          -0.00023196411159 0 0 -0.00023196411159 0 0
          -0.00023193263013 0 0 -0.00023193263013 0 0
          -0.00023193263013 0 0 -0.00023193263013 0 0
          -0.00023189435519 0 0 -0.00023189435519 0 0
          -0.00023189435519 0 0 -0.00023189435519 0 0
          -0.00023184797229 0 0 -0.00023184797229 0 0
          -0.00023184797229 0 0 -0.00023184797229 0 0
          -0.00023179193462 0 0 -0.00023179193462 0 0
          -0.00023179193462 0 0 -0.00023179193462 0 0
          -0.00023172442644 0 0 -0.00023172442644 0 0
          -0.00023172442644 0 0 -0.00023172442644 0 0
          -0.00023164332171 0 0 -0.00023164332171 0 0
          -0.00023164332171 0 0 -0.00023164332171 0 0
          -0.00023154613734 0 0 -0.00023154613734 0 0
          -0.00023154613734 0 0 -0.00023154613734 0 0
          -0.00023142998054 0 0 -0.00023142998054 0 0
          -0.00023142998054 0 0 -0.00023142998054 0 0
          -0.00023129148984 0 0 -0.00023129148984 0 0
          -0.00023129148984 0 0 -0.00023129148984 0 0
          -0.00023112676907 0 0 -0.00023112676907 0 0
          -0.00023112676907 0 0 -0.00023112676907 0 0
          -0.00023093131396 0 0 -0.00023093131396 0 0
          -0.00023093131396 0 0 -0.00023093131396 0 0
          -0.0002306999306 0 0 -0.0002306999306 0 0
          -0.0002306999306 0 0 -0.0002306999306 0 0
          -0.00023042664535 0 0 -0.00023042664535 0 0
          -0.00023042664535 0 0 -0.00023042664535 0 0
          -0.00023010460556 0 0 -0.00023010460556 0 0
          -0.00023010460556 0 0 -0.00023010460556 0 0
          -0.00022972597077 0 0 -0.00022972597077 0 0
          -0.00022972597077 0 0 -0.00022972597077 0 0
          -0.00022928179361 0 0 -0.00022928179361 0 0
          -0.00022928179361 0 0 -0.00022928179361 0 0
          -0.00022876189033 0 0 -0.00022876189033 0 0
          -0.00022876189033 0 0 -0.00022876189033 0 0
          -0.00022815470031 0 0 -0.00022815470031 0 0
          -0.00022815470031 0 0 -0.00022815470031 0 0
          -0.00022744713437 0 0 -0.00022744713437 0 0
          -0.00022744713437 0 0 -0.00022744713437 0 0
          -0.00022662441171 0 0 -0.00022662441171 0 0
          -0.00022662441171 0 0 -0.00022662441171 0 0
          -0.00022566988528 0 0 -0.00022566988528 0 0
          -0.00022566988528 0 0 -0.00022566988528 0 0
          -0.00022456485558 0 0 -0.00022456485558 0 0
          -0.00022456485558 0 0 -0.00022456485558 0 0
          -0.00022328837313 0 0 -0.00022328837313 0 0
          -0.00022328837313 0 0 -0.00022328837313 0 0
          -0.00022181702975 0 0 -0.00022181702975 0 0
          -0.00022181702975 0 0 -0.00022181702975 0 0
          -0.00022012473905 0 0 -0.00022012473905 0 0
          -0.00022012473905 0 0 -0.00022012473905 0 0
          -0.00021818250688 0 0 -0.00021818250688 0 0
          -0.00021818250688 0 0 -0.00021818250688 0 0
          -0.00021595819218 0 0 -0.00021595819218 0 0
          -0.00021595819218 0 0 -0.00021595819218 0 0
          -0.0002134162594 0 0 -0.0002134162594 0 0
          -0.0002134162594 0 0 -0.0002134162594 0 0
          -0.00021051752341 0 0 -0.00021051752341 0 0
          -0.00021051752341 0 0 -0.00021051752341 0 0
          -0.00020721888818 0 0 -0.00020721888818 0 0
          -0.00020721888818 0 0 -0.00020721888818 0 0
          -0.00020347308061 0 0 -0.00020347308061 0 0
          -0.00020347308061 0 0 -0.00020347308061 0 0
          -0.00019922838119 0 0 -0.00019922838119 0 0
          -0.00019922838119 0 0 -0.00019922838119 0 0