<?xml version="1.0"?>
<VTKFile type="UnstructuredGrid" version="0.1" byte_order="LittleEndian" header_type="UInt32">
  <UnstructuredGrid>
    <FieldData>
      <DataArray type="Int8" Name="IntegrationPointMetaData" NumberOfTuples="237" format="ascii" RangeMin="34" RangeMax="125">
        123 34 105 110 116 101
        103 114 97 116 105 111
        110 95 112 111 105 110
        116 95 97 114 114 97
        121 115 34 58 91 123
        34 105 110 116 101 103
        114 97 116 105 111 110
        95 111 114 100 101 114
        34 58 50 44 34 110
        97 109 101 34 58 34
        115 105 103 109 97 95
        105 112 34 44 34 110
        117 109 98 101 114 95
        111 102 95 99 111 109
        112 111 110 101 110 116
        115 34 58 54 125 44
        123 34 105 110 116 101
        103 114 97 116 105 111
        110 95 111 114 100 101
        114 34 58 50 44 34
        110 97 109 101 34 58
        34 101 112 115 105 108
        111 110 95 105 112 34
        44 34 110 117 109 98
        101 114 95 111 102 95
        99 111 109 112 111 110
        101 110 116 115 34 58
        54 125 44 123 34 105
        110 116 101 103 114 97
        116 105 111 110 95 111
        114 100 101 114 34 58
        50 44 34 110 97 109
        101 34 58 34 101 112
        115 105 108 111 110 95
        109 95 105 112 34 44
        34 110 117 109 98 101
        114 95 111 102 95 99
        111 109 112 111 110 101
        110 116 115 34 58 54
        125 93 125
      </DataArray>
      <DataArray type="Int8" Name="OGS_VERSION" NumberOfTuples="40" format="ascii" RangeMin="45" RangeMax="121">
        54 46 50 46 48 45
        49 53 45 103 53 51
        56 49 101 101 99 99
        100 46 100 105 114 116
        121 46 50 48 49 57
        48 52 48 49 49 53
        48 52 49 50
      </DataArray>
      <DataArray type="Float64" Name="epsilon_ip" NumberOfComponents="6" NumberOfTuples="5400" format="ascii" RangeMin="1.1958570319e-09" RangeMax="0.0049634462361">
        -0.0049634462361 3.5669038969e-18 1.2792080321e-17 -5.0344291241e-19 8.0577786323e-18 7.0534686247e-19
        -0.0049634462361 -2.0537620026e-17 8.5928290786e-35 -5.4375532913e-19 1.41183156e-17 -9.4528011315e-19
        -0.0049634462361 -4.4642143948e-17 -1.2792080321e-17 -1.459722033e-18 8.0577786323e-18 -1.6616748495e-18
        -0.0049634462361 -8.7113924012e-35 -1.145006755e-17 4.4718164503e-19 1.4083909613e-17 4.2994717481e-19
        -0.0049634462361 -1.7422784802e-34 1.7522259592e-34 -5.1967060008e-19 2.0144446581e-17 3.2379373994e-19
        -0.0049634462361 -8.7113924012e-35 1.145006755e-17 -2.3597813614e-18 1.4083909613e-17 -1.6420402416e-19
        -0.0049634462361 -3.5669038969e-18 -3.5692215421e-17 8.0345014821e-19 8.0577786323e-18 4.2706643425e-19
        -0.0049634462361 2.0537620026e-17 -6.1012950703e-34 2.4924485981e-19 1.41183156e-17 1.8667269783e-18
        -0.0049634462361 4.4642143948e-17 3.5692215421e-17 -1.1901977996e-18 8.0577786323e-18 1.5692502411e-18
        -0.0048403629002 3.6257405008e-18 1.2885218236e-17 -3.0908755531e-18 8.1023248419e-18 4.5194142365e-18
        -0.0048403629002 -2.0612342601e-17 -7.0475644849e-34 -1.475710234e-18 1.4196291329e-17 -1.2025972967e-18
        -0.0048403629002 -4.4850425703e-17 -1.2885218236e-17 -3.6794038308e-18 8.1023248419e-18 -6.1561411772e-18
        -0.0048403629002 0 -1.1490647713e-17 9.7399084351e-20 1.4161845617e-17 1.5152314213e-18
        -0.0048403629002 0 0 -6.6869887971e-20 2.0255812105e-17 3.1900219802e-19
        -0.0048403629002 0 1.1490647713e-17 -4.1266624471e-18 1.4161845617e-17 -1.2830290641e-18
        -0.0048403629002 -3.6257405008e-18 -3.5866513663e-17 2.7883463915e-18 8.1023248419e-18 -4.5158256664e-19
        -0.0048403629002 2.0612342601e-17 2.1205685028e-33 2.0316984567e-18 1.4196291329e-17 3.004489991e-18
        -0.0048403629002 4.4850425703e-17 3.5866513663e-17 -2.4863098909e-18 8.1023248419e-18 4.6418265019e-18
        -0.0047172795643 3.6845771046e-18 1.2978356151e-17 -6.0376738383e-18 8.1468710514e-18 8.8126358032e-18
        -0.0047172795643 -2.0687065177e-17 -3.3660143474e-36 -2.1656922715e-18 1.4274267058e-17 -1.0018089258e-18
        -0.0047172795643 -4.5058707458e-17 -1.2978356151e-17 -5.3660265891e-18 8.1468710514e-18 -9.8935438803e-18
        -0.0047172795643 0 -1.1531227877e-17 -5.6383370159e-19 1.4239781622e-17 2.4735398067e-18
        -0.0047172795643 0 5.8662860286e-36 5.464474787e-19 2.0367177629e-17 3.1717663784e-19
        -0.0047172795643 0 1.1531227877e-17 -5.2574663419e-18 1.4239781622e-17 -2.279669785e-18
        -0.0047172795643 -3.6845771046e-18 -3.6040811904e-17 4.3647636856e-18 8.1468710514e-18 -1.6662384452e-18
        -0.0047172795643 2.0687065177e-17 7.2122082803e-34 4.0441460661e-18 1.4274267058e-17 3.6700579288e-18
        -0.0047172795643 4.5058707458e-17 3.6040811904e-17 -3.1571257607e-18 8.1468710514e-18 7.2747787909e-18
        -0.0046475250976 3.7157008822e-18 1.2996374267e-17 -7.8474646105e-18 8.1758706191e-18 1.0913781178e-17
        -0.0046475250976 -2.0742095902e-17 9.1433838988e-35 -2.6237414259e-18 1.4325227351e-17 5.0425355415e-19
        -0.0046475250976 -4.5199892687e-17 -1.2996374267e-17 -4.9694566007e-18 8.1758706191e-18 -1.0351081895e-17
        -0.0046475250976 -8.7086360819e-35 -1.1601052663e-17 -9.1308078533e-19 1.4290319815e-17 3.2136734175e-18
        -0.0046475250976 -1.8091537015e-34 1.6337992586e-34 3.3088372653e-19 2.0439676548e-17 1.6041756634e-18
        -0.0046475250976 -9.5896039705e-35 1.1601052663e-17 -6.0137562887e-18 1.4290319815e-17 -2.3061828826e-18
        -0.0046475250976 -3.7157008822e-18 -3.6198479593e-17 5.6155703193e-18 8.1758706191e-18 -1.0065770181e-18
        -0.0046475250976 2.0742095902e-17 -6.8203767855e-34 4.3383689943e-18 1.4325227351e-17 5.7345368289e-18
        -0.0046475250976 4.5199892687e-17 3.6198479593e-17 -4.1465092747e-18 8.1758706191e-18 8.5741110652e-18
        -0.0045307369936 3.7638208809e-18 1.2965155459e-17 -1.0754732675e-17 8.2309811822e-18 1.2140415911e-17
        -0.0045307369936 -2.0856485958e-17 -7.0699790017e-34 -2.5279105873e-18 1.4422376246e-17 1.8691490188e-18
        -0.0045307369936 -4.5476792797e-17 -1.2965155459e-17 -1.7375615708e-18 8.2309811822e-18 -8.7123745559e-18
        -0.0045307369936 0 -1.1800424796e-17 -8.8313364829e-19 1.4386057892e-17 3.2711719206e-18
        -0.0045307369936 0 -8.6463793448e-35 2.3505288799e-19 2.0577452956e-17 1.2603915743e-18
        -0.0045307369936 0 1.1800424796e-17 -5.6807441248e-18 1.4386057892e-17 -2.9769987524e-18
        -0.0045307369936 -3.7638208809e-18 -3.6566005051e-17 8.5551812916e-18 8.2309811822e-18 1.3400806407e-18
        -0.0045307369936 2.0856485958e-17 2.0683773729e-33 4.4485744586e-18 1.4422376246e-17 6.810419031e-18
        -0.0045307369936 4.5476792797e-17 3.6566005051e-17 -6.8453452652e-18 8.2309811822e-18 8.881967634e-18
        -0.0044139488896 3.8119408796e-18 1.293393665e-17 -1.3562576244e-17 8.2860917454e-18 1.3673709328e-17
        -0.0044139488896 -2.0970876013e-17 2.2564977234e-36 -2.6429075936e-18 1.451952514e-17 3.5277466834e-18
        -0.0044139488896 -4.5753692907e-17 -1.293393665e-17 1.9710918808e-18 8.2860917454e-18 -6.7957577851e-18
        -0.0044139488896 0 -1.1999796929e-17 -7.5855355818e-19 1.4481795969e-17 3.769492281e-18
        -0.0044139488896 0 0 3.5004989424e-19 2.0715229364e-17 1.1631124202e-18
        -0.0044139488896 0 1.1999796929e-17 -4.9620128357e-18 1.4481795969e-17 -3.5136514482e-18
        -0.0044139488896 -3.8119408796e-18 -3.6933530508e-17 1.1650517377e-17 8.2860917454e-18 3.5633560949e-18
        -0.0044139488896 2.0970876013e-17 6.9432078297e-34 4.3335774523e-18 1.451952514e-17 7.9024078185e-18
        -0.0044139488896 4.5753692907e-17 3.6933530508e-17 -9.1357023063e-18 8.2860917454e-18 8.6998890408e-18
        -0.0043477949179 3.8366257632e-18 1.2784796714e-17 -1.4453505882e-17 8.2989356162e-18 1.4637325179e-17
        -0.0043477949179 -2.0982781752e-17 1.5113663764e-34 -1.4464940241e-18 1.4542487162e-17 8.4005721442e-18
        -0.0043477949179 -4.5802189268e-17 -1.2784796714e-17 5.9064983597e-18 8.2989356162e-18 -2.9188844422e-18
        -0.0043477949179 -9.1687538956e-35 -1.2189409468e-17 -6.6197981802e-19 1.4503787495e-17 4.2673607388e-18
        -0.0043477949179 -1.8205046794e-34 1.6417030711e-34 1.9443493462e-18 2.074733904e-17 3.3467280976e-18
        -0.0043477949179 -9.5673790899e-35 1.2189409468e-17 -9.212623703e-19 1.4503787495e-17 -2.6803750556e-18
        -0.0043477949179 -3.8366257632e-18 -3.7163615649e-17 1.2913385835e-17 8.2989356162e-18 4.7813837861e-18
        -0.0043477949179 2.0982781752e-17 -6.0121265254e-34 4.2841901208e-18 1.4542487162e-17 8.7566984838e-18
        -0.0043477949179 4.5802189268e-17 3.7163615649e-17 -9.1317559787e-18 8.2989356162e-18 8.672115831e-18
        -0.0042370854596 3.8733351614e-18 1.2303497373e-17 -1.4252261121e-17 8.287962908e-18 1.2260720383e-17
        -0.0042370854596 -2.090930567e-17 -6.5163846285e-34 3.4092431402e-20 1.4524247062e-17 1.0039378326e-17
        -0.0042370854596 -4.5691946501e-17 -1.2303497373e-17 1.2078004362e-17 8.287962908e-18 3.2142892246e-18
        -0.0042370854596 0 -1.2641639244e-17 -5.8245535203e-20 1.4483623116e-17 3.1940553471e-18
        -0.0042370854596 -1.0621723821e-35 1.3074893501e-34 1.6472737468e-18 2.071990727e-17 3.2143440856e-18
        -0.0042370854596 0 1.2641639244e-17 9.7618823285e-19 1.4483623116e-17 -1.2908278967e-18
        -0.0042370854596 -3.8733351614e-18 -3.7586775861e-17 1.3557848224e-17 8.287962908e-18 6.7003963279e-18
        -0.0042370854596 2.090930567e-17 2.1024735422e-33 2.2765340533e-18 1.4524247062e-17 9.2274792556e-18
        -0.0042370854596 4.5691946501e-17 3.7586775861e-17 -1.0940563056e-17 8.287962908e-18 7.4574599524e-18
        -0.0041263760013 3.9100445595e-18 1.1822198032e-17 -1.417559645e-17 8.2769901998e-18 9.1174688788e-18
        -0.0041263760013 -2.0835829587e-17 -6.9576772168e-35 1.8932106991e-18 1.4506006963e-17 1.148484251e-17
[...]
      <PointData>
        <DataArray type="Float64" Name="displacement" NumberOfComponents="3" format="ascii" RangeMin="0" RangeMax="0.00065398511905">
          -4.8403580599e-05 0 0 0 0 0
          0 0 0 -4.8403580599e-05 0 0
          -4.8403580599e-05 0 0 0 0 0
          0 0 0 -4.8403580599e-05 0 0
          -9.3710995843e-05 0 0 -9.3710995843e-05 0 0
          -9.3710995843e-05 0 0 -9.3710995843e-05 0 0
          -0.00013608185044 0 0 -0.00013608185044 0 0
          -0.00013608185044 0 0 -0.00013608185044 0 0
          -0.00017567035083 0 0 -0.00017567035083 0 0
          -0.00017567035083 0 0 -0.00017567035083 0 0
          -0.00021262510838 0 0 -0.00021262510838 0 0
          -0.00021262510838 0 0 -0.00021262510838 0 0
          -0.00024708923164 0 0 -0.00024708923164 0 0
          -0.00024708923164 0 0 -0.00024708923164 0 0
          -0.00027920037973 0 0 -0.00027920037973 0 0
          -0.00027920037973 0 0 -0.00027920037973 0 0
          -0.0003090908235 0 0 -0.0003090908235 0 0
          -0.0003090908235 0 0 -0.0003090908235 0 0
          -0.00033688751424 0 0 -0.00033688751424 0 0
          -0.00033688751424 0 0 -0.00033688751424 0 0
          -0.00036271215962 0 0 -0.00036271215962 0 0
          -0.00036271215962 0 0 -0.00036271215962 0 0
          -0.00038668130667 0 0 -0.00038668130667 0 0
          -0.00038668130667 0 0 -0.00038668130667 0 0
          -0.0004089064314 0 0 -0.0004089064314 0 0
          -0.0004089064314 0 0 -0.0004089064314 0 0
          -0.00042949403472 0 0 -0.00042949403472 0 0
          -0.00042949403472 0 0 -0.00042949403472 0 0
          -0.00044854574419 0 0 -0.00044854574419 0 0
          -0.00044854574419 0 0 -0.00044854574419 0 0
          -0.00046615842139 0 0 -0.00046615842139 0 0
          -0.00046615842139 0 0 -0.00046615842139 0 0
          -0.00048242427422 0 0 -0.00048242427422 0 0
          -0.00048242427422 0 0 -0.00048242427422 0 0
          -0.00049743097391 0 0 -0.00049743097391 0 0
          -0.00049743097391 0 0 -0.00049743097391 0 0
          -0.00051126177611 0 0 -0.00051126177611 0 0
          -0.00051126177611 0 0 -0.00051126177611 0 0
          -0.00052399564567 0 0 -0.00052399564567 0 0
          -0.00052399564567 0 0 -0.00052399564567 0 0
          -0.00053570738456 0 0 -0.00053570738456 0 0
          -0.00053570738456 0 0 -0.00053570738456 0 0
          -0.00054646776257 0 0 -0.00054646776257 0 0
          -0.00054646776257 0 0 -0.00054646776257 0 0
          -0.00055634365013 0 0 -0.00055634365013 0 0
          -0.00055634365013 0 0 -0.00055634365013 0 0
          -0.00056539815288 0 0 -0.00056539815288 0 0
          -0.00056539815288 0 0 -0.00056539815288 0 0
          -0.00057369074751 0 0 -0.00057369074751 0 0
          -0.00057369074751 0 0 -0.00057369074751 0 0
          -0.00058127741831 0 0 -0.00058127741831 0 0
          -0.00058127741831 0 0 -0.00058127741831 0 0
          -0.00058821079409 0 0 -0.00058821079409 0 0
          -0.00058821079409 0 0 -0.00058821079409 0 0
          -0.00059454028491 0 0 -0.00059454028491 0 0
          -0.00059454028491 0 0 -0.00059454028491 0 0
          -0.00060031221836 0 0 -0.00060031221836 0 0
          -0.00060031221836 0 0 -0.00060031221836 0 0
          -0.0006055699747 0 0 -0.0006055699747 0 0
          -0.0006055699747 0 0 -0.0006055699747 0 0
          -0.00061035412083 0 0 -0.00061035412083 0 0
          -0.00061035412083 0 0 -0.00061035412083 0 0
          -0.00061470254242 0 0 -0.00061470254242 0 0
          -0.00061470254242 0 0 -0.00061470254242 0 0
          -0.00061865057403 0 0 -0.00061865057403 0 0
          -0.00061865057403 0 0 -0.00061865057403 0 0
          -0.00062223112687 0 0 -0.00062223112687 0 0
          -0.00062223112687 0 0 -0.00062223112687 0 0
          -0.00062547481391 0 0 -0.00062547481391 0 0
          -0.00062547481391 0 0 -0.00062547481391 0 0
          -0.00062841007201 0 0 -0.00062841007201 0 0
          -0.00062841007201 0 0 -0.00062841007201 0 0
          -0.00063106328098 0 0 -0.00063106328098 0 0
          -0.00063106328098 0 0 -0.00063106328098 0 0
          -0.00063345887925 0 0 -0.00063345887925 0 0
          -0.00063345887925 0 0 -0.00063345887925 0 0
          -0.00063561947599 0 0 -0.00063561947599 0 0
          -0.00063561947599 0 0 -0.00063561947599 0 0
          -0.00063756595958 0 0 -0.00063756595958 0 0
          -0.00063756595958 0 0 -0.00063756595958 0 0
          -0.00063931760225 0 0 -0.00063931760225 0 0
          -0.00063931760225 0 0 -0.00063931760225 0 0
          -0.00064089216081 0 0 -0.00064089216081 0 0
          -0.00064089216081 0 0 -0.00064089216081 0 0
          -0.00064230597338 0 0 -0.00064230597338 0 0
          -0.00064230597338 0 0 -0.00064230597338 0 0
          -0.00064357405215 0 0 -0.00064357405215 0 0
          -0.00064357405215 0 0 -0.00064357405215 0 0
          -0.00064471017196 0 0 -0.00064471017196 0 0
          -0.00064471017196 0 0 -0.00064471017196 0 0
          -0.00064572695494 0 0 -0.00064572695494 0 0
          -0.00064572695494 0 0 -0.00064572695494 0 0
          -0.00064663595102 0 0 -0.00064663595102 0 0
          -0.00064663595102 0 0 -0.00064663595102 0 0
          -0.0006474477144 0 0 -0.0006474477144 0 0
          -0.0006474477144 0 0 -0.0006474477144 0 0
          -0.00064817187608 0 0 -0.00064817187608 0 0
          -0.00064817187608 0 0 -0.00064817187608 0 0
          -0.00064881721248 0 0 -0.00064881721248 0 0
          -0.00064881721248 0 0 -0.00064881721248 0 0
          -0.00064939171017 0 0 -0.00064939171017 0 0
          -0.00064939171017 0 0 -0.00064939171017 0 0
          -0.00064990262692 0 0 -0.00064990262692 0 0
          -0.00064990262692 0 0 -0.00064990262692 0 0
          -0.00065035654908 0 0 -0.00065035654908 0 0
          -0.00065035654908 0 0 -0.00065035654908 0 0
          -0.00065075944537 0 0 -0.00065075944537 0 0
          -0.00065075944537 0 0 -0.00065075944537 0 0
          -0.00065111671734 0 0 -0.00065111671734 0 0
          -0.00065111671734 0 0 -0.00065111671734 0 0
          -0.00065143324647 0 0 -0.00065143324647 0 0
          -0.00065143324647 0 0 -0.00065143324647 0 0
          -0.00065171343816 0 0 -0.00065171343816 0 0
          -0.00065171343816 0 0 -0.00065171343816 0 0
          -0.00065196126261 0 0 -0.00065196126261 0 0
          -0.00065196126261 0 0 -0.00065196126261 0 0
          -0.0006521802929 0 0 -0.0006521802929 0 0
          -0.0006521802929 0 0 -0.0006521802929 0 0
          -0.00065237374021 0 0 -0.00065237374021 0 0
          -0.00065237374021 0 0 -0.00065237374021 0 0
          -0.00065254448655 0 0 -0.00065254448655 0 0
          -0.00065254448655 0 0 -0.00065254448655 0 0
          -0.00065269511485 0 0 -0.00065269511485 0 0
          -0.00065269511485 0 0 -0.00065269511485 0 0
          -0.00065282793685 0 0 -0.00065282793685 0 0
          -0.00065282793685 0 0 -0.00065282793685 0 0
          -0.00065294501872 0 0 -0.00065294501872 0 0
          -0.00065294501872 0 0 -0.00065294501872 0 0
          -0.00065304820453 0 0 -0.00065304820453 0 0
          -0.00065304820453 0 0 -0.00065304820453 0 0
          -0.00065313913795 0 0 -0.00065313913795 0 0
          -0.00065313913795 0 0 -0.00065313913795 0 0
          -0.00065321928193 0 0 -0.00065321928193 0 0
          -0.00065321928193 0 0 -0.00065321928193 0 0
          -0.00065328993684 0 0 -0.00065328993684 0 0
          -0.00065328993684 0 0 -0.00065328993684 0 0
          -0.00065335225689 0 0 -0.00065335225689 0 0
          -0.00065335225689 0 0 -0.00065335225689 0 0
          -0.00065340726522 0 0 -0.00065340726522 0 0
          -0.00065340726522 0 0 -0.00065340726522 0 0
          -0.00065345586745 0 0 -0.00065345586745 0 0
          -0.00065345586745 0 0 -0.00065345586745 0 0
          -0.00065349886419 0 0 -0.00065349886419 0 0
          -0.00065349886419 0 0 -0.00065349886419 0 0
          -0.00065353696213 0 0 -0.00065353696213 0 0
          -0.00065353696213 0 0 -0.00065353696213 0 0
          -0.00065357078431 0 0 -0.00065357078431 0 0
          -0.00065357078431 0 0 -0.00065357078431 0 0
          -0.00065360087919 0 0 -0.00065360087919 0 0
          -0.00065360087919 0 0 -0.00065360087919 0 0
          -0.00065362772895 0 0 -0.00065362772895 0 0
          -0.00065362772895 0 0 -0.00065362772895 0 0
          -0.00065365175692 0 0 -0.00065365175692 0 0
          -0.00065365175692 0 0 -0.00065365175692 0 0
          -0.00065367333424 0 0 -0.00065367333424 0 0
          -0.00065367333424 0 0 -0.00065367333424 0 0
          -0.00065369278584 0 0 -0.00065369278584 0 0
          -0.00065369278584 0 0 -0.00065369278584 0 0
          -0.00065371039581 0 0 -0.00065371039581 0 0
          -0.00065371039581 0 0 -0.00065371039581 0 0
          -0.00065372641216 0 0 -0.00065372641216 0 0
          -0.00065372641216 0 0 -0.00065372641216 0 0
          -0.00065374105113 0 0 -0.00065374105113 0 0
          -0.00065374105113 0 0 -0.00065374105113 0 0
          -0.00065375450094 0 0 -0.00065375450094 0 0
          -0.00065375450094 0 0 -0.00065375450094 0 0
          -0.00065376692519 0 0 -0.00065376692519 0 0
          -0.00065376692519 0 0 -0.00065376692519 0 0
          -0.00065377846587 0 0 -0.00065377846587 0 0
          -0.00065377846587 0 0 -0.00065377846587 0 0
          -0.00065378924599 0 0 -0.00065378924599 0 0
          -0.00065378924599 0 0 -0.00065378924599 0 0
          -0.00065379937192 0 0 -0.00065379937192 0 0
          -0.00065379937192 0 0 -0.00065379937192 0 0
          -0.00065380893546 0 0 -0.00065380893546 0 0
          -0.00065380893546 0 0 -0.00065380893546 0 0
          -0.00065381801568 0 0 -0.00065381801568 0 0
          -0.00065381801568 0 0 -0.00065381801568 0 0
          -0.00065382668047 0 0 -0.00065382668047 0 0
          -0.00065382668047 0 0 -0.00065382668047 0 0
          -0.00065383498796 0 0 -0.00065383498796 0 0
          -0.00065383498796 0 0 -0.00065383498796 0 0
          -0.00065384298773 0 0 -0.00065384298773 0 0
          -0.00065384298773 0 0 -0.00065384298773 0 0
          -0.00065385072182 0 0 -0.00065385072182 0 0
          -0.00065385072182 0 0 -0.00065385072182 0 0
          -0.00065385822569 0 0 -0.00065385822569 0 0
          -0.00065385822569 0 0 -0.00065385822569 0 0
          -0.00065386552897 0 0 -0.00065386552897 0 0
          -0.00065386552897 0 0 -0.00065386552897 0 0
          -0.00065387265609 0 0 -0.00065387265609 0 0
          -0.00065387265609 0 0 -0.00065387265609 0 0
          -0.00065387962686 0 0 -0.00065387962686 0 0
          -0.00065387962686 0 0 -0.00065387962686 0 0
          -0.0006538864569 0 0 -0.0006538864569 0 0
          -0.0006538864569 0 0 -0.0006538864569 0 0
          -0.00065389315799 0 0 -0.00065389315799 0 0
          -0.00065389315799 0 0 -0.00065389315799 0 0
          -0.00065389973837 0 0 -0.00065389973837 0 0
          -0.00065389973837 0 0 -0.00065389973837 0 0
          -0.00065390620289 0 0 -0.00065390620289 0 0
          -0.00065390620289 0 0 -0.00065390620289 0 0
          -0.00065391255315 0 0 -0.00065391255315 0 0
          -0.00065391255315 0 0 -0.00065391255315 0 0
          -0.00065391878751 0 0 -0.00065391878751 0 0
          -0.00065391878751 0 0 -0.00065391878751 0 0
          -0.00065392490109 0 0 -0.00065392490109 0 0
          -0.00065392490109 0 0 -0.00065392490109 0 0
          -0.00065393088564 0 0 -0.00065393088564 0 0
          -0.00065393088564 0 0 -0.00065393088564 0 0
          -0.00065393672932 0 0 -0.00065393672932 0 0
          -0.00065393672932 0 0 -0.00065393672932 0 0
          -0.00065394241648 0 0 -0.00065394241648 0 0
          -0.00065394241648 0 0 -0.00065394241648 0 0
          -0.00065394792726 0 0 -0.00065394792726 0 0
          -0.00065394792726 0 0 -0.00065394792726 0 0
          -0.00065395323717 0 0 -0.00065395323717 0 0
          -0.00065395323717 0 0 -0.00065395323717 0 0
          -0.00065395831653 0 0 -0.00065395831653 0 0
          -0.00065395831653 0 0 -0.00065395831653 0 0
          -0.00065396312981 0 0 -0.00065396312981 0 0
          -0.00065396312981 0 0 -0.00065396312981 0 0
          -0.00065396763488 0 0 -0.00065396763488 0 0
          -0.00065396763488 0 0 -0.00065396763488 0 0
          -0.00065397178207 0 0 -0.00065397178207 0 0
          -0.00065397178207 0 0 -0.00065397178207 0 0
          -0.00065397551313 0 0 -0.00065397551313 0 0
          -0.00065397551313 0 0 -0.00065397551313 0 0
          -0.00065397876004 0 0 -0.00065397876004 0 0
          -0.00065397876004 0 0 -0.00065397876004 0 0
          -0.00065398144358 0 0 -0.00065398144358 0 0
          -0.00065398144358 0 0 -0.00065398144358 0 0
          -0.00065398347177 0 0 -0.00065398347177 0 0
          -0.00065398347177 0 0 -0.00065398347177 0 0
          -0.00065398473801 0 0 -0.00065398473801 0 0
          -0.00065398473801 0 0 -0.00065398473801 0 0
          -0.00065398511905 0 0 -0.00065398511905 0 0
          -0.00065398511905 0 0 -0.00065398511905 0 0
          -0.00065398447261 0 0 -0.00065398447261 0 0
          -0.00065398447261 0 0 -0.00065398447261 0 0
          -0.00065398263474 0 0 -0.00065398263474 0 0
          -0.00065398263474 0 0 -0.00065398263474 0 0
          -0.00065397941682 0 0 -0.00065397941682 0 0
          -0.00065397941682 0 0 -0.00065397941682 0 0
          -0.00065397460215 0 0 -0.00065397460215 0 0
          -0.00065397460215 0 0 -0.00065397460215 0 0
          -0.00065396794217 0 0 -0.00065396794217 0 0
          -0.00065396794217 0 0 -0.00065396794217 0 0
          -0.00065395915216 0 0 -0.00065395915216 0 0
          -0.00065395915216 0 0 -0.00065395915216 0 0
          -0.00065394790643 0 0 -0.00065394790643 0 0
          -0.00065394790643 0 0 -0.00065394790643 0 0
          -0.00065393383301 0 0 -0.00065393383301 0 0
          -0.00065393383301 0 0 -0.00065393383301 0 0
          -0.00065391650756 0 0 -0.00065391650756 0 0
          -0.00065391650756 0 0 -0.00065391650756 0 0
          -0.00065389544675 0 0 -0.00065389544675 0 0
          -0.00065389544675 0 0 -0.00065389544675 0 0
          -0.00065387010077 0 0 -0.00065387010077 0 0
          -0.00065387010077 0 0 -0.00065387010077 0 0
          -0.00065383984508 0 0 -0.00065383984508 0 0
          -0.00065383984508 0 0 -0.00065383984508 0 0
          -0.00065380397117 0 0 -0.00065380397117 0 0
          -0.00065380397117 0 0 -0.00065380397117 0 0
          -0.00065376167641 0 0 -0.00065376167641 0 0
          -0.00065376167641 0 0 -0.00065376167641 0 0
          -0.0006537120528 0 0 -0.0006537120528 0 0
          -0.0006537120528 0 0 -0.0006537120528 0 0
          -0.0006536540745 0 0 -0.0006536540745 0 0
          -0.0006536540745 0 0 -0.0006536540745 0 0
          -0.00065358658418 0 0 -0.00065358658418 0 0
          -0.00065358658418 0 0 -0.00065358658418 0 0
          -0.00065350827791 0 0 -0.00065350827791 0 0
          -0.00065350827791 0 0 -0.00065350827791 0 0
          -0.00065341768866 0 0 -0.00065341768866 0 0
          -0.00065341768866 0 0 -0.00065341768866 0 0
          -0.0006533131681 0 0 -0.0006533131681 0 0
          -0.0006533131681 0 0 -0.0006533131681 0 0
          -0.00065319286682 0 0 -0.00065319286682 0 0
          -0.00065319286682 0 0 -0.00065319286682 0 0
          -0.0006530547126 0 0 -0.0006530547126 0 0
          -0.0006530547126 0 0 -0.0006530547126 0 0
          -0.00065289638681 0 0 -0.00065289638681 0 0
          -0.00065289638681 0 0 -0.00065289638681 0 0
          -0.00065271529867 0 0 -0.00065271529867 0 0
          -0.00065271529867 0 0 -0.00065271529867 0 0
          -0.0006525085573 0 0 -0.0006525085573 0 0
          -0.0006525085573 0 0 -0.0006525085573 0 0
          -0.00065227294144 0 0 -0.00065227294144 0 0
          -0.00065227294144 0 0 -0.00065227294144 0 0
          -0.00065200486666 0 0 -0.00065200486666 0 0
          -0.00065200486666 0 0 -0.00065200486666 0 0
          -0.00065170034992 0 0 -0.00065170034992 0 0
          -0.00065170034992 0 0 -0.00065170034992 0 0
          -0.0006513549714 0 0 -0.0006513549714 0 0
          -0.0006513549714 0 0 -0.0006513549714 0 0
          -0.00065096383337 0 0 -0.00065096383337 0 0
          -0.00065096383337 0 0 -0.00065096383337 0 0
          -0.00065052151606 0 0 -0.00065052151606 0 0
          -0.00065052151606 0 0 -0.00065052151606 0 0
          -0.00065002203033 0 0 -0.00065002203033 0 0
          -0.00065002203033 0 0 -0.00065002203033 0 0
          -0.00064945876706 0 0 -0.00064945876706 0 0
          -0.00064945876706 0 0 -0.00064945876706 0 0
          -0.00064882444304 0 0 -0.00064882444304 0 0
          -0.00064882444304 0 0 -0.00064882444304 0 0
          -0.00064811104339 0 0 -0.00064811104339 0 0
          -0.00064811104339 0 0 -0.00064811104339 0 0
          -0.00064730976027 0 0 -0.00064730976027 0 0
          -0.00064730976027 0 0 -0.00064730976027 0 0
          -0.00064641092788 0 0 -0.00064641092788 0 0
          -0.00064641092788 0 0 -0.00064641092788 0 0
          -0.00064540395353 0 0 -0.00064540395353 0 0
          -0.00064540395353 0 0 -0.00064540395353 0 0
          -0.00064427724491 0 0 -0.00064427724491 0 0
          -0.00064427724491 0 0 -0.00064427724491 0 0
          -0.00064301813328 0 0 -0.00064301813328 0 0
          -0.00064301813328 0 0 -0.00064301813328 0 0
          -0.00064161279268 0 0 -0.00064161279268 0 0
          -0.00064161279268 0 0 -0.00064161279268 0 0
          -0.00064004615509 0 0 -0.00064004615509 0 0
          -0.00064004615509 0 0 -0.00064004615509 0 0
          -0.00063830182154 0 0 -0.00063830182154 0 0
          -0.00063830182154 0 0 -0.00063830182154 0 0
          -0.00063636196915 0 0 -0.00063636196915 0 0
          -0.00063636196915 0 0 -0.00063636196915 0 0
          -0.00063420725418 0 0 -0.00063420725418 0 0
          -0.00063420725418 0 0 -0.00063420725418 0 0
          -0.00063181671117 0 0 -0.00063181671117 0 0
          -0.00063181671117 0 0 -0.00063181671117 0 0
          -0.00062916764822 0 0 -0.00062916764822 0 0
          -0.00062916764822 0 0 -0.00062916764822 0 0
          -0.00062623553844 0 0 -0.00062623553844 0 0
          -0.00062623553844 0 0 -0.00062623553844 0 0
          -0.00062299390794 0 0 -0.00062299390794 0 0
          -0.00062299390794 0 0 -0.00062299390794 0 0
          -0.0006194142203 0 0 -0.0006194142203 0 0
          -0.0006194142203 0 0 -0.0006194142203 0 0
          -0.00061546575786 0 0 -0.00061546575786 0 0
          -0.00061546575786 0 0 -0.00061546575786 0 0
          -0.00061111549993 0 0 -0.00061111549993 0 0
          -0.00061111549993 0 0 -0.00061111549993 0 0
          -0.0006063279984 0 0 -0.0006063279984 0 0
          -0.0006063279984 0 0 -0.0006063279984 0 0
          -0.00060106525078 0 0 -0.00060106525078 0 0
          -0.00060106525078 0 0 -0.00060106525078 0 0
          -0.00059528657113 0 0 -0.00059528657113 0 0
          -0.00059528657113 0 0 -0.00059528657113 0 0
          -0.0005889484593 0 0 -0.0005889484593 0 0
          -0.0005889484593 0 0 -0.0005889484593 0 0
          -0.00058200446865 0 0 -0.00058200446865 0 0
          -0.00058200446865 0 0 -0.00058200446865 0 0
          -0.00057440507284 0 0 -0.00057440507284 0 0
          -0.00057440507284 0 0 -0.00057440507284 0 0
          -0.00056609753206 0 0 -0.00056609753206 0 0
          -0.00056609753206 0 0 -0.00056609753206 0 0
          -0.00055702575912 0 0 -0.00055702575912 0 0
          -0.00055702575912 0 0 -0.00055702575912 0 0
          -0.00054713018593 0 0 -0.00054713018593 0 0
          -0.00054713018593 0 0 -0.00054713018593 0 0
          -0.00053634763087 0 0 -0.00053634763087 0 0
          -0.00053634763087 0 0 -0.00053634763087 0 0
          -0.00052461116748 0 0 -0.00052461116748 0 0
          -0.00052461116748 0 0 -0.00052461116748 0 0
          -0.00051184999515 0 0 -0.00051184999515 0 0
          -0.00051184999515 0 0 -0.00051184999515 0 0
          -0.00049798931217 0 0 -0.00049798931217 0 0
          -0.00049798931217 0 0 -0.00049798931217 0 0
          -0.00048295019194 0 0 -0.00048295019194 0 0