<?xml version="1.0"?>
<VTKFile type="UnstructuredGrid" version="1.0" byte_order="LittleEndian" header_type="UInt64">
  <UnstructuredGrid>
    <Piece NumberOfPoints="749" NumberOfCells="1496">
      <PointData>
      </PointData>
      <CellData>
        <DataArray type="Int32" Name="MaterialIDs" format="ascii" RangeMin="0" RangeMax="3">
          0 0 0 0 0 0
          0 0 0 0 0 0
          0 0 0 0 0 0
          0 0 0 0 0 0
          0 1 1 1 1 1
          1 1 1 1 1 1
          1 1 1 1 1 1
          1 1 1 1 1 1
          1 1 2 2 2 2
          2 2 2 2 2 2
          2 2 2 2 2 2
          2 2 2 2 2 2
          2 2 2 3 3 3
          3 3 3 3 3 3
          3 3 3 3 3 3
          3 3 3 3 3 3
          3 3 3 3 0 0
          0 0 0 0 0 0
          0 0 0 0 0 0
          0 0 0 0 0 0
          0 0 0 0 0 0
          0 0 0 0 0 0
          0 0 0 0 0 0
          0 0 0 0 0 0
          0 0 0 0 0 0
          0 0 0 0 0 0
          0 0 0 0 0 0
          0 0 0 0 0 0
          0 0 0 0 0 0
          0 0 0 0 0 0
          0 0 0 0 0 0
          0 0 0 0 0 0
          0 0 0 0 0 0
          0 0 0 0 0 0
          0 0 0 0 0 0
          0 0 0 0 0 0
          0 0 0 0 0 0
          0 0 0 0 0 0
          0 0 0 0 0 0
          0 0 0 0 0 0
          0 0 0 0 0 0
          0 0 0 0 0 0
          0 0 0 0 0 0
          0 0 0 0 0 0
          0 0 0 0 0 0
          0 0 0 0 0 0
          0 0 0 0 0 0
          0 0 0 0 0 0
          0 0 0 0 0 0
          0 0 0 0 0 0
          0 0 0 0 0 0
          0 0 0 0 0 0
          0 0 0 0 0 0
          0 0 0 0 0 0
          0 0 0 0 0 0
          0 0 0 0 0 0
          0 0 0 0 0 0
          0 0 0 0 0 0
          0 0 0 0 0 0
          0 0 0 0 0 0
          0 0 0 0 0 0
          0 0 0 0 0 0
          0 0 0 0 0 0
          0 0 0 0 0 0
          0 0 0 0 0 0
          0 0 0 0 0 0
          0 0 0 0 0 0
          0 0 0 0 0 0
          0 0 0 0 0 0
          0 0 0 0 0 0
          0 0 0 0 0 0
          0 0 0 0 0 0
          0 0 0 0 0 0
          0 0 0 0 0 0
          0 0 0 0 0 0
          0 0 0 0 0 0
          0 0 0 0 0 0
          0 0 0 0 0 0
          0 0 0 0 0 0
          0 0 0 0 0 0
          0 0 0 0 0 0
          0 0 0 0 0 0
          0 0 0 0 0 0
          0 0 0 0 0 0
          0 0 0 0 0 0
          0 0 0 0 0 0
          0 0 0 0 0 0
          0 0 0 0 0 0
          0 0 0 0 0 0
          0 0 0 0 0 0
          0 0 0 0 0 0
          0 0 0 0 0 0
          0 0 0 0 0 0
          0 0 0 0 0 0
          0 0 0 0 0 0
          0 0 0 0 0 0
          0 0 0 0 0 0
          0 0 0 0 0 0
          0 0 0 0 0 0
          0 0 0 0 0 0
          0 0 0 0 0 0
          0 0 0 0 0 0
          0 0 0 0 0 0
          0 0 0 0 0 0
          0 0 0 0 0 0
          0 0 0 0 0 0
          0 0 0 0 0 0
          0 0 0 0 0 0
          0 0 0 0 0 0
          0 0 0 0 0 0
          0 0 0 0 0 0
          0 0 0 0 0 0
          0 0 0 0 0 0
          0 0 0 0 0 0
          0 0 0 0 0 0
          0 0 0 0 0 0
          0 0 0 0 0 0
          0 0 0 0 0 0
          0 0 0 0 0 0
          0 0 0 0 0 0
          0 0 0 0 0 0
          0 0 0 0 0 0
          0 0 0 0 0 0
          0 0 0 0 0 0
          0 0 0 0 0 0
          0 0 0 0 0 0
          0 0 0 0 0 0
          0 0 0 0 0 0
          0 0 0 0 0 0
          0 0 0 0 0 0
          0 0 0 0 0 0
          0 0 0 0 0 0
          0 0 0 0 0 0
          0 0 0 0 0 0
          0 0 0 0 0 0
          0 0 0 0 0 0
          0 0 0 0 0 0
          0 0 0 0 0 0
          0 0 0 0 0 0
          0 0 0 0 0 0
          0 0 0 0 0 0
          0 0 0 0 0 0
          0 0 0 0 0 0
          0 0 0 0 0 0
          0 0 0 0 0 0
          0 0 0 0 0 0
          0 0 0 0 0 0
          0 0 0 0 0 0
          0 0 0 0 0 0
          0 0 0 0 0 0
          0 0 0 0 0 0
          0 0 0 0 0 0
          0 0 0 0 0 0
          0 0 0 0 0 0
          0 0 0 0 0 0
          0 0 0 0 0 0
          0 0 0 0 0 0
          0 0 0 0 0 0
          0 0 0 0 0 0
          0 0 0 0 0 0
          0 0 0 0 0 0
          0 0 0 0 0 0
          0 0 0 0 0 0
          0 0 0 0 0 0
          0 0 0 0 0 0
          0 0 0 0 0 0
          0 0 0 0 0 0
          0 0 0 0 0 0
          0 0 0 0 0 0
          0 0 0 0 0 0
          0 0 0 0 0 0
          0 0 0 0 0 0
          0 0 0 0 0 0
          0 0 0 0 0 0
          0 0 0 0 0 0
          0 0 0 0 0 0
          0 0 0 0 0 0
          0 0 0 0 0 0
          0 0 0 0 0 0
          0 0 0 0 0 0
          0 0 0 0 0 0
          0 0 0 0 0 0
          0 0 0 0 0 0
          0 0 0 0 0 0
          0 0 0 0 0 0
          0 0 0 0 0 0
          0 0 0 0 0 0
          0 0 0 0 0 0
          0 0 0 0 0 0
          0 0 0 0 0 0
          0 0 0 0 0 0
          0 0 0 0 0 0
          0 0 0 0 0 0
          0 0 0 0 0 0
          0 0 0 0 0 0
          0 0 0 0 0 0
          0 0 0 0 0 0
          0 0 0 0 0 0
          0 0 0 0 0 0
          0 0 0 0 0 0
          0 0 0 0 0 0
          0 0 0 0 0 0
          0 0 0 0 0 0
          0 0 0 0 0 0
          0 0 0 0 0 0
          0 0 0 0 0 0
          0 0 0 0 0 0
          0 0 0 0 0 0
          0 0 0 0 0 0
          0 0 0 0 0 0
          0 0 0 0 0 0
          0 0 0 0 0 0
          0 0 0 0 0 0
          0 0 0 0 0 0
          0 0 0 0 0 0
          0 0 0 0 0 0
          0 0 0 0 0 0
          0 0 0 0 0 0
          0 0 0 0 0 0
          0 0 0 0 0 0
          0 0 0 0 0 0
          0 0 0 0 0 0
          0 0 0 0 0 0
          0 0 0 0 0 0
          0 0 0 0 0 0
          0 0 0 0 0 0
          0 0 0 0 0 0
          0 0 0 0 0 0
          0 0 0 0 0 0
          0 0 0 0 0 0
          0 0 0 0 0 0
          0 0 0 0 0 0
          0 0 0 0 0 0
          0 0 0 0 0 0
          0 0 0 0 0 0
          0 0 0 0 0 0
          0 0 0 0 0 0
          0 0 0 0 0 0
          0 0 0 0 0 0
          0 0 0 0 0 0
          0 0 0 0 0 0
          0 0 0 0 0 0
          0 0 0 0 0 0
          0 0 0 0 0 0
          0 0 0 0 0 0
          0 0 0 0 0 0
          0 0 0 0 0 0
          0 0 0 0 0 0
          0 0 0 0 0 0
          0 0
        </DataArray>
      </CellData>
      <Points>
        <DataArray type="Float64" Name="Points" NumberOfComponents="3" format="ascii" RangeMin="5514669.248469667" RangeMax="5515211.326415063">
          485279 5493276 0 485279 5493776 0
          485779 5493776 0 485779 5493276 0
          485279 5493296 0 485279 5493316 0
          485279 5493336 0 485279 5493356 0
          485279 5493376 0 485279 5493396 0
          485279 5493416 0 485279 5493436 0
          485279 5493456 0 485279 5493476 0
          485279 5493496 0 485279 5493516 0
          485279 5493536 0 485279 5493556 0
          485279 5493576 0 485279 5493596 0
          485279 5493616 0 485279 5493636 0
          485279 5493656 0 485279 5493676 0
          485279 5493696 0 485279 5493716 0
          485279 5493736 0 485279 5493756 0
          485299 5493776 0 485319 5493776 0
          485339 5493776 0 485359 5493776 0
          485379 5493776 0 485399 5493776 0
          485419 5493776 0 485439 5493776 0
          485459 5493776 0 485479 5493776 0
          485499 5493776 0 485519 5493776 0
          485539 5493776 0 485559 5493776 0
          485579 5493776 0 485599 5493776 0
          485619 5493776 0 485639 5493776 0
          485659 5493776 0 485679 5493776 0
          485699 5493776 0 485719 5493776 0
          485739 5493776 0 485759 5493776 0
          485779 5493756 0 485779 5493736 0
          485779 5493716 0 485779 5493696 0
          485779 5493676 0 485779 5493656 0
          485779 5493636 0 485779 5493616 0
          485779 5493596 0 485779 5493576 0
          485779 5493556 0 485779 5493536 0
          485779 5493516 0 485779 5493496 0
          485779 5493476 0 485779 5493456 0
          485779 5493436 0 485779 5493416 0
          485779 5493396 0 485779 5493376 0
          485779 5493356 0 485779 5493336 0
          485779 5493316 0 485779 5493296 0
          485759 5493276 0 485739 5493276 0
          485719 5493276 0 485699 5493276 0
          485679 5493276 0 485659 5493276 0
          485639 5493276 0 485619 5493276 0
          485599 5493276 0 485579 5493276 0
          485559 5493276 0 485539 5493276 0
          485519 5493276 0 485499 5493276 0
          485479 5493276 0 485459 5493276 0
          485439 5493276 0 485419 5493276 0
          485399 5493276 0 485379 5493276 0
          485359 5493276 0 485339 5493276 0
          485319 5493276 0 485299 5493276 0
          485293.8895181525 5493495.252561142 0 485297.985010766 5493472.555348164 0
          485309.2947519731 5493294.829647404 0 485319.1405821196 5493317.233006396 0
          485331.5813583146 5493295.754084105 0 485295.7458115747 5493306.216560047 0
          485403.0980372808 5493738.158925265 0 485395.4434193068 5493714.136044293 0
          485384.4667970437 5493734.175387203 0 485298.517375151 5493684.175150863 0
          485652.1917083706 5493645.120855262 0 485648.7894407487 5493623.36029218 0
          485637.5869781622 5493638.269904573 0 485407.3786657913 5493388.076736509 0
          485414.5451640916 5493401.818038696 0 485422.0263823048 5493389.063315866 0
          485566.2384603773 5493425.646316237 0 485545.5108994807 5493414.157314379 0
          485544.8033164654 5493437.882801433 0 485435.0999974753 5493405.032681932 0
          485416.3379453393 5493716.764018573 0 485527.3369735977 5493422.175374673 0
          485293.3417208838 5493358.119316638 0 485305.8089353423 5493338.581724979 0
          485316.7064426622 5493360.513264299 0 485336.3419673077 5493359.556218564 0
          485330.9258001414 5493336.818504119 0 485348.6639702449 5493342.322448338 0
          485433.4696650736 5493756.94793788 0 485412.783345721 5493758.200896014 0
          485678.98593434 5493290.299263606 0 485300.5349472986 5493381.620910552 0
          485694.0504487396 5493625.621053463 0 485688.6506246854 5493651.583051949 0
          485706.4767104626 5493643.154324089 0 485424.5245043985 5493737.331688185 0
          485419.5125643135 5493418.968676734 0 485397.8140950212 5493407.802266998 0
          485390.4616149634 5493758.697227007 0 485369.2455637264 5493755.014366619 0
          485765.7497309861 5493289.215744716 0 485749.8213935341 5493292.483900154 0
          485762.7605785067 5493304.627862393 0 485548.4447164031 5493297.083368952 0
          485530.2812827535 5493289.768681583 0 485630.6615628633 5493756.482529244 0
          485648.4185367991 5493758.550462368 0 485457.4554850666 5493345.37775901 0
          485467.4817181067 5493331.468118368 0 485449.7305585474 5493327.764994252 0
          485723.1106738866 5493547.300707246 0 485714.0830080505 5493563.333239981 0
          485732.9063885244 5493562.570067224 0 485477.0848704929 5493346.866471459 0
          485438.9458926227 5493636.424603004 0 485450.8134833189 5493647.988881497 0
          485456.8029238061 5493628.977569413 0 485567.3030074493 5493404.853851316 0
          485585.5375498178 5493415.761892247 0 485363.2964626343 5493464.32464727 0
          485375.8828680751 5493446.845461025 0 485356.0186993659 5493445.628611031 0
          485719.6238088251 5493349.724122454 0 485699.112001518 5493350.689257791 0
          485708.8483135895 5493368.459552562 0 485324.9692822066 5493758.19824155 0
          485528.8747469699 5493402.829201262 0 485548.500413505 5493393.354931024 0
          485758.7518753276 5493703.450716065 0 485675.9426432124 5493385.703339286 0
          485671.3607796999 5493410.218377053 0 485692.4823604233 5493400.789345717 0
          485654.4738878803 5493391.992330232 0 485717.7509704535 5493427.081568819 0
          485732.8170618949 5493411.790329803 0 485711.1883505976 5493409.089137032 0
          485360.3257133187 5493732.104268129 0 485345.5202773887 5493752.110656756 0
          485760.3184241758 5493361.70652163 0 485764.1105173312 5493343.397449455 0
          485726.9713045264 5493398.168595938 0 485370.0966788569 5493295.813587246 0
          485351.0073395636 5493290.121913032 0 485352.3818261944 5493306.669169981 0
          485727.9190437755 5493381.546170685 0 485746.7529546736 5493394.72528367 0
          485382.1748038803 5493624.551098192 0 485381.1938514697 5493599.801036922 0
          485365.0619164272 5493615.530061896 0 485762.0504096856 5493583.955221212 0
          485329.9648626313 5493662.656629997 0 485339.2616986259 5493642.879665601 0
          485314.3416665276 5493645.896573386 0 485352.5137173529 5493657.395851788 0
          485757.3636269909 5493562.811054869 0 485745.6888287293 5493594.682539799 0
          485743.0204177819 5493576.958593244 0 485723.6161206408 5493584.534938852 0
          485371.7868771188 5493318.802569243 0 485381.2537129649 5493339.343392359 0
          485392.710033404 5493326.353598802 0 485364.6964495157 5493339.380518203 0
          485395.1742262659 5493612.67818977 0 485296.5207342862 5493660.46940526 0
          485312.5304586164 5493667.21017831 0 485706.6336024217 5493603.860076793 0
          485716.0574145485 5493626.278507602 0 485730.573094988 5493608.852441557 0
          485339.8810765164 5493584.852948424 0 485321.1319806483 5493574.9870771 0
          485321.2046232883 5493595.287516274 0 485306.7938487697 5493586.137402775 0
          485705.6471395154 5493442.196273896 0 485725.1197674185 5493445.062594931 0
          485739.975600496 5493428.251612011 0 485637.3558133028 5493429.270322766 0
          485633.3556923822 5493447.444466622 0 485648.9723077338 5493443.911321688 0
          485665.6058032481 5493445.982508433 0 485649.781440943 5493461.369416012 0
          485671.2749021105 5493463.585350309 0 485762.8097959196 5493542.843989554 0
          485660.1887065508 5493477.790851193 0 485308.0500900685 5493626.425981204 0
          485299.6014523026 5493605.55919079 0 485291.9347206771 5493625.220909989 0
          485762.6903329474 5493600.362885785 0 485467.9356780526 5493647.879704555 0
          485705.8716666867 5493542.177873379 0 485724.4166848611 5493528.633138483 0
          485742.3274194569 5493541.334289712 0 485745.9803665532 5493445.732687019 0
          485762.3064949579 5493429.089096521 0 485736.3655018716 5493629.860224671 0
          485757.888784148 5493631.87552454 0 485752.0344237806 5493613.605602725 0
          485362.5245502856 5493637.632345708 0 485371.8394798717 5493657.91653646 0
          485743.7713251178 5493312.803325807 0 485762.5786530618 5493324.232658694 0
          485688.3637851033 5493593.877085586 0 485702.0909583645 5493579.23980773 0
          485682.3987021554 5493572.322504089 0 485292.7377482053 5493586.424970502 0
          485299.2934394042 5493568.428259202 0 485671.1639564669 5493588.813740872 0
          485709.5213689644 5493520.57990104 0 485687.8928514537 5493524.405767045 0
          485431.7649326913 5493478.894707988 0 485436.8528823477 5493457.324552417 0
          485417.5718721916 5493468.956907392 0 485383.9337519736 5493560.019244866 0
          485393.8482367711 5493578.577335732 0 485404.6558613063 5493560.797799827 0
          485448.0570434697 5493478.161144494 0 485472.7578804468 5493702.439845848 0
          485450.7553773146 5493710.551844906 0 485472.6867556511 5493723.559925719 0
          485580.4430941422 5493514.78719072 0 485597.7514664743 5493524.388587071 0
          485600.843236829 5493508.129662085 0 485495.1469467685 5493691.815715746 0
          485475.2464397346 5493677.943073659 0 485585.5827177214 5493534.71277786 0
          485412.4910710205 5493578.168820642 0 485586.6948163951 5493322.552882696 0
          485599.9671740361 5493314.66327554 0 485586.7848162155 5493305.604198289 0
          485602.6298487262 5493332.987172036 0 485666.0774583209 5493536.703325385 0
          485684.0702763163 5493549.402038886 0 485763.4385328683 5493450.584064987 0
          485757.325125662 5493465.417022703 0 485682.9171889249 5493506.927233579 0
          485664.6896476917 5493513.389860057 0 485362.3794672614 5493499.149346494 0
          485371.6548634662 5493482.789482858 0 485351.368755769 5493483.291762609 0
          485624.4629201131 5493644.34900149 0 485624.9015531042 5493624.605804349 0
          485636.3217419766 5493655.186045046 0 485578.8863273136 5493338.384733574 0
          485555.1863967394 5493336.657637154 0 485566.0291727625 5493357.27208203 0
          485566.5607334716 5493317.466256273 0 485463.0707917128 5493378.940801951 0
          485469.4323003715 5493362.00614658 0 485444.2690523154 5493362.685293335 0
          485626.6622677992 5493740.56524789 0 485642.2595678471 5493740.963631806 0
          485631.7868078724 5493723.346768186 0 485676.8402903575 5493710.833442651 0
          485696.3305483884 5493697.669738273 0 485677.984671755 5493690.236907598 0
          485642.7443165399 5493526.80162442 0 485646.0743447143 5493508.868894998 0
          485629.2604834124 5493512.361664016 0 485509.2003677326 5493743.351841172 0
          485491.1767969882 5493757.093696785 0 485519.0015537178 5493759.813115805 0
          485617.029297859 5493396.819529639 0 485632.6794815447 5493385.047406442 0
          485613.4910014117 5493378.001284536 0 485492.5977332967 5493734.712598562 0
          485540.208312284 5493477.543475447 0 485533.8667224374 5493458.145620774 0
          485521.0668191233 5493475.576838864 0 485616.3115895177 5493431.231118166 0
          485605.4916143711 5493412.786707331 0 485598.8273407134 5493427.939566794 0
          485484.1838015377 5493377.453286879 0 485363.0243702891 5493561.238740018 0
          485350.7538954851 5493543.524486564 0 485339.9750549651 5493561.453887582 0
          485329.0344452919 5493539.999309424 0 485742.1257178786 5493518.655787868 0
          485723.2953120134 5493504.921464614 0 485490.5298011038 5493360.713266847 0
          485759.391037694 5493525.725740685 0 485760.2499211792 5493508.201129039 0
          485617.4439888582 5493522.905239134 0 485749.7846763267 5493754.875474452 0
          485728.9160826986 5493758.345635213 0 485479.4131935111 5493525.768547202 0
          485482.3775066463 5493541.766631776 0 485497.2952097518 5493525.636701867 0
          485589.8160344305 5493391.8130975 0 485584.0173866058 5493436.683408491 0
          485766.4979321059 5493761.383459194 0 485765.6531633623 5493743.562480107 0
          485625.4278754907 5493413.15503922 0 485342.4479494573 5493524.959543004 0
          485326.6744256569 5493521.162137735 0 485463.5607481066 5493611.47684303 0
          485480.825174321 5493610.606001863 0 485468.2857231528 5493593.809109482 0
          485434.5152962063 5493719.819012104 0 485748.3898641332 5493733.663710184 0
          485763.0207997991 5493725.052794723 0 485747.3298959711 5493717.63986198 0
          485722.430616195 5493645.150341032 0 485381.0806493936 5493497.711377871 0
          485373.1536578284 5493509.902782695 0 485358.276824385 5493515.892940965 0
          485400.7139002784 5493500.4630509 0 485388.0260666385 5493485.33572855 0
          485401.079419456 5493478.26214116 0 485590.0160305424 5493477.231458129 0
          485604.8196944245 5493490.075609963 0 485607.1794420109 5493467.857368253 0
          485323.3076544861 5493682.853132042 0 485346.3892805515 5493677.76611901 0
          485366.7131834874 5493676.65755657 0 485629.7986963094 5493467.301665226 0
          485617.9143064867 5493451.582955872 0 485694.5682530099 5493740.125157141 0
          485692.4814782953 5493719.323310911 0 485676.9776414116 5493731.617117031 0
          485498.3872629298 5493608.614466169 0 485491.4790984146 5493627.327553694 0
          485474.0063956603 5493628.075618823 0 485586.6232107594 5493494.82769467 0
          485575.7799909551 5493478.620069593 0 485310.1386727701 5493529.885046438 0
          485292.059044249 5493528.305160373 0 485295.6094339539 5493545.029668176 0
          485338.6720471822 5493727.567191871 0 485371.3165885475 5493713.891291634 0
          485349.3713120478 5493710.591124726 0 485498.5752139413 5493503.57023776 0
          485513.8131079201 5493515.858995461 0 485514.5846625476 5493495.711624605 0
          485688.5621206708 5493448.019504155 0 485710.9196714968 5493389.511607493 0
          485396.2555490529 5493340.710256442 0 485413.0229074226 5493335.655902053 0
          485697.6962473079 5493561.502521986 0 485310.3957275339 5493704.175838187 0
          485293.1708085177 5493703.646066561 0 485300.2795145835 5493451.411858882 0
          485303.5613773672 5493426.656780372 0 485337.927473302 5493314.624713032 0
          485351.8912300105 5493324.898153231 0 485506.649787466 5493374.619820288 0
          485514.4777547533 5493393.153991388 0 485531.7042213633 5493380.234549624 0
          485316.6121941264 5493555.24507464 0 485345.6201934533 5493377.988689959 0
          485361.8468836172 5493380.436551572 0 485356.9385548481 5493359.812899732 0
          485376.6092946422 5493371.899939463 0 485688.352354214 5493322.913654437 0
          485706.0323382351 5493332.094880136 0 485710.2078780963 5493312.897384538 0
          485479.7987929911 5493509.484436529 0 485464.5014138304 5493514.849884883 0
          485391.4427259949 5493290.245729412 0 485461.5505291513 5493532.792210011 0
          485479.7358139641 5493489.623089003 0 485646.2824048135 5493339.047007032 0
          485665.3551308486 5493348.188596472 0 485666.8468096741 5493330.846807445 0
          485384.4478416384 5493692.674075437 0 485360.4029666138 5493694.572208405 0
          485728.1800035065 5493329.107299008 0 485748.4369262586 5493332.20503507 0
          485622.0444935752 5493483.171034959 0 485498.0809508171 5493479.694331245 0
          485695.7283955822 5493674.927799533 0 485717.3453519891 5493685.626684777 0
          485404.8426090475 5493631.372421091 0 485385.9116847897 5493646.485124332 0
          485561.0752541402 5493512.984122104 0 485563.6643939991 5493531.249929945 0
          485549.163177703 5493520.574886987 0 485335.8851900492 5493391.790774079 0
          485325.8751817193 5493378.096414874 0 485453.3478593497 5493758.850503561 0
          485669.5393353135 5493310.963390877 0 485651.4156881836 5493294.694131883 0
          485555.727857754 5493696.858829645 0 485561.8188154786 5493711.287605238 0
          485579.3366285748 5493699.605584553 0 485568.5529060643 5493463.498270176 0
          485557.9283714037 5493479.66869131 0 485339.0804668362 5493409.385267613 0
          485356.8373070579 5493398.28553685 0 485376.9201954785 5493392.791747269 0
          485377.011070983 5493411.901073072 0 485361.5187022987 5493423.956193654 0
          485506.934452515 5493550.190630266 0 485696.7353947677 5493758.701586992 0
          485388.1381286769 5493305.761759709 0 485408.173584972 5493302.599769429 0
          485294.6118322842 5493642.074818682 0 485747.3790262296 5493663.726784503 0
          485762.4481295955 5493669.446648936 0 485760.434968581 5493651.512461264 0
          485660.5183716192 5493744.206700583 0 485655.2361661461 5493723.560822753 0
          485662.5197986853 5493370.298324817 0 485648.608766681 5493357.844122439 0
          485527.2865584826 5493548.252179598 0 485541.4318639769 5493560.307560121 0
          485542.3796032203 5493538.013522168 0 485545.6606211521 5493500.996671508 0
          485706.7134127131 5493728.508061694 0 485712.5334336156 5493710.191148045 0
          485414.2253598701 5493609.796662101 0 485419.1371389453 5493592.927781073 0
          485402.4887710094 5493595.164294709 0 485764.6984170228 5493686.034532052 0
          485744.1763657397 5493683.406115799 0 485530.7020737664 5493490.20656404 0
          485477.3028948907 5493392.032319109 0 485494.9388288892 5493394.087429707 0
          485309.6469877081 5493761.793134905 0 485309.6390992278 5493743.121465151 0
          485294.7477177042 5493759.293923342 0 485585.1144432564 5493459.182371913 0
          485741.1259805971 5493479.458348592 0 485760.140665326 5493487.99157174 0
          485632.0253694343 5493672.997791931 0 485611.6129321931 5493678.752874822 0
          485626.4756369575 5493691.810972545 0 485617.7323445485 5493661.139705333 0
          485601.5607514318 5493445.746131581 0 485729.6685341343 5493665.007736064 0
          485311.2604501894 5493486.758605106 0 485728.7192694126 5493725.596146806 0
          485716.0320401482 5493744.980175442 0 485330.3523059164 5493707.068357999 0
          485320.1242496865 5493447.756681732 0 485298.9075864266 5493405.191936552 0
          485323.0440449874 5493432.452353125 0 485683.7001673366 5493340.553674075 0
          485512.7280737562 5493460.733268415 0 485506.9844719962 5493447.484102529 0
          485493.4811896873 5493460.510582172 0 485745.7108794164 5493372.238034275 0
          485316.8652354224 5493468.659128408 0 485341.0168042304 5493463.725019662 0
          485614.3458379331 5493354.737913917 0 485598.1169588402 5493370.9074231 0
          485523.1905133939 5493564.658082869 0 485569.5769996234 5493294.233878927 0
          485711.0913194108 5493660.973378545 0 485388.1240884753 5493358.364517728 0
          485398.2977139549 5493371.626139108 0 485406.3510747342 5493354.622660904 0
          485420.1861178256 5493371.725542718 0 485340.9137486636 5493693.858310821 0
          485297.5728756249 5493723.947770531 0 485486.3701227434 5493587.493401373 0
          485520.1542007374 5493532.817434072 0 485533.1530481277 5493518.994201601 0
          485386.7355144275 5493668.208785729 0 485670.6299316618 5493493.660521044 0
          485653.0211026141 5493493.790327338 0 485292.300469333 5493290.430448132 0
          485319.4533455076 5493723.364551128 0 485547.5914359394 5493679.068404325 0
          485568.5490203529 5493681.810176813 0 485561.7828731725 5493661.111509657 0
          485754.2631906218 5493413.425781346 0 485742.3612385266 5493647.855512013 0
          485402.2490518704 5493678.569948405 0 485407.1498951735 5493659.093784663 0
          485578.678157993 5493669.741394725 0 485373.9492802225 5493352.448893735 0
          485618.0228702444 5493501.423882524 0 485503.0812774348 5493590.4806877 0
          485678.6788551582 5493752.040166819 0 485690.7357557486 5493305.942254549 0
          485667.4602667497 5493653.564725544 0 485670.042473821 5493633.155123614 0
          485557.7051211824 5493547.00406706 0 485634.762213959 5493495.200919624 0
          485434.7246063596 5493602.618148884 0 485426.7806787288 5493623.37376844 0
          485445.3425748615 5493615.977931899 0 485339.3885267133 5493428.603977668 0
          485335.9785215284 5493443.634949939 0 485630.3755355625 5493290.208102344 0
          485630.2151237882 5493308.008651334 0 485427.6004396887 5493294.872277738 0
          485427.0649155193 5493319.001309116 0 485764.7270315062 5493400.698365843 0
          485609.747288934 5493295.573734665 0 485762.2235882983 5493383.645047092 0
          485641.4223587172 5493478.435012684 0 485692.9390716503 5493380.610538645 0
          485320.6907253216 5493416.566491286 0 485683.8838402458 5493363.38624535 0
          485560.5473754877 5493567.569045193 0 485648.2290121409 5493319.066849942 0
          485627.3360644293 5493331.759114517 0 485420.3084919907 5493676.203642917 0
          485633.9686137413 5493349.59152586 0 485611.0193700258 5493752.530959895 0
          485609.8612688135 5493729.548785854 0 485512.0252424139 5493312.419806974 0
          485503.1309437663 5493327.447224736 0 485523.5925989195 5493326.301710007 0
          485463.4270260838 5493439.910267277 0 485457.1328731494 5493421.274103574 0
          485445.9332634212 5493439.550706552 0 485483.0743671108 5493328.28394625 0
          485496.1305501852 5493344.041367507 0 485408.5069215682 5493433.368185737 0
          485387.2356564477 5493429.068562827 0 485399.2071557424 5493453.949732011 0
          485437.577403078 5493424.232773762 0 485644.5951038508 5493686.998056834 0
          485639.6259406579 5493706.63747751 0 485478.4931063678 5493448.861054888 0
          485477.4313255181 5493430.989689187 0 485494.6386005839 5493440.825969613 0
          485596.9712219236 5493713.819366083 0 485589.5302132402 5493738.149516394 0
          485432.2410847241 5493658.899258956 0 485704.2107611346 5493292.495067934 0
          485727.3349986112 5493293.831504899 0 485503.1792886105 5493571.15392019 0
          485464.1456537712 5493478.575773104 0 485458.5013202631 5493459.579811023 0
          485458.1559019141 5493397.774155679 0 485529.3820440278 5493680.070732631 0
          485536.8529614815 5493694.881507149 0 485522.3218897278 5493665.866660061 0
          485512.6336552753 5493680.589805488 0 485515.3547074109 5493344.101630929 0
          485506.5093858961 5493356.967894798 0 485524.2047187188 5493359.72832277 0
          485506.22089571 5493662.580417807 0 485596.3433130854 5493579.114126014 0
          485603.7309722889 5493599.103491375 0 485615.4127389381 5493586.226545077 0
          485584.3735830509 5493598.026009697 0 485427.9769262346 5493437.814608649 0
          485647.5760619608 5493412.101042472 0 485439.0444816931 5493382.908070705 0
          485484.1052168481 5493643.097753778 0 485339.7736392536 5493607.904310285 0
          485319.8047750577 5493612.580994114 0 485328.0060935614 5493627.223400258 0
          485345.2923185565 5493625.381461416 0 485507.6627504412 5493411.292509163 0
          485495.1766137657 5493424.946579972 0 485511.3376010255 5493431.087419502 0
          485534.78942184 5493342.000815845 0 485522.8882884759 5493442.988134901 0
          485438.3917550921 5493676.127343289 0 485431.9506996996 5493695.784485119 0
          485313.7215298152 5493505.250972654 0 485527.8729620196 5493306.878183962 0
          485694.8217624146 5493423.935478164 0 485619.0857654496 5493710.049586304 0
          485604.6423835435 5493697.104551426 0 485509.9283746557 5493294.381815919 0
          485478.5743294194 5493469.2309012 0 485459.2719127666 5493497.458158667 0
          485652.6822191765 5493666.877751118 0 485630.740860477 5493572.356037869 0
          485644.9600632776 5493560.265440034 0 485627.3201756892 5493546.987261946 0
          485648.7615672741 5493544.542391573 0 485662.1538309689 5493682.955864182 0