<?xml version="1.0"?>
<VTKFile type="UnstructuredGrid" version="1.0" byte_order="LittleEndian" header_type="UInt64">
  <UnstructuredGrid>
    <Piece NumberOfPoints="749" NumberOfCells="1496">
      <PointData>
      </PointData>
      <CellData>
        <DataArray type="Int32" Name="MaterialIDs" format="ascii" RangeMin="0" RangeMax="3">
          0 0 0 0 0 0
          0 0 0 0 0 0
          0 0 0 0 0 0
          0 0 0 0 0 0
          0 1 1 1 1 1
          1 1 1 1 1 1
          1 1 1 1 1 1
          1 1 1 1 1 1
          1 1 2 2 2 2
          2 2 2 2 2 2
          2 2 2 2 2 2
          2 2 2 2 2 2
          2 2 2 3 3 3
          3 3 3 3 3 3
          3 3 3 3 3 3
          3 3 3 3 3 3
          3 3 3 3 0 0
          0 0 0 0 0 0
          0 0 0 0 0 0
          0 0 0 0 0 0
          0 0 0 0 0 0
          0 0 0 0 0 0
          0 0 0 0 0 0
          0 0 0 0 0 0
          0 0 0 0 0 0
          0 0 0 0 0 0
          0 0 0 0 0 0
          0 0 0 0 0 0
          0 0 0 0 0 0
          0 0 0 0 0 0
          0 0 0 0 0 0
          0 0 0 0 0 0
          0 0 0 0 0 0
          0 0 0 0 0 0
          0 0 0 0 0 0
          0 0 0 0 0 0
          0 0 0 0 0 0
          0 0 0 0 0 0
          0 0 0 0 0 0
          0 0 0 0 0 0
          0 0 0 0 0 0
          0 0 0 0 0 0
          0 0 0 0 0 0
          0 0 0 0 0 0
          0 0 0 0 0 0
          0 0 0 0 0 0
          0 0 0 0 0 0
          0 0 0 0 0 0
          0 0 0 0 0 0
          0 0 0 0 0 0
          0 0 0 0 0 0
          0 0 0 0 0 0
          0 0 0 0 0 0
          0 0 0 0 0 0
          0 0 0 0 0 0
          0 0 0 0 0 0
          0 0 0 0 0 0
          0 0 0 0 0 0
          0 0 0 0 0 0
          0 0 0 0 0 0
          0 0 0 0 0 0
          0 0 0 0 0 0
          0 0 0 0 0 0
          0 0 0 0 0 0
          0 0 0 0 0 0
          0 0 0 0 0 0
          0 0 0 0 0 0
          0 0 0 0 0 0
          0 0 0 0 0 0
          0 0 0 0 0 0
          0 0 0 0 0 0
          0 0 0 0 0 0
          0 0 0 0 0 0
          0 0 0 0 0 0
          0 0 0 0 0 0
          0 0 0 0 0 0
          0 0 0 0 0 0
          0 0 0 0 0 0
          0 0 0 0 0 0
          0 0 0 0 0 0
          0 0 0 0 0 0
          0 0 0 0 0 0
          0 0 0 0 0 0
          0 0 0 0 0 0
          0 0 0 0 0 0
          0 0 0 0 0 0
          0 0 0 0 0 0
          0 0 0 0 0 0
          0 0 0 0 0 0
          0 0 0 0 0 0
          0 0 0 0 0 0
          0 0 0 0 0 0
          0 0 0 0 0 0
          0 0 0 0 0 0
          0 0 0 0 0 0
          0 0 0 0 0 0
          0 0 0 0 0 0
          0 0 0 0 0 0
          0 0 0 0 0 0
          0 0 0 0 0 0
          0 0 0 0 0 0
          0 0 0 0 0 0
          0 0 0 0 0 0
          0 0 0 0 0 0
          0 0 0 0 0 0
          0 0 0 0 0 0
          0 0 0 0 0 0
          0 0 0 0 0 0
          0 0 0 0 0 0
          0 0 0 0 0 0
          0 0 0 0 0 0
          0 0 0 0 0 0
          0 0 0 0 0 0
          0 0 0 0 0 0
          0 0 0 0 0 0
          0 0 0 0 0 0
          0 0 0 0 0 0
          0 0 0 0 0 0
          0 0 0 0 0 0
          0 0 0 0 0 0
          0 0 0 0 0 0
          0 0 0 0 0 0
          0 0 0 0 0 0
          0 0 0 0 0 0
          0 0 0 0 0 0
          0 0 0 0 0 0
          0 0 0 0 0 0
          0 0 0 0 0 0
          0 0 0 0 0 0
          0 0 0 0 0 0
          0 0 0 0 0 0
          0 0 0 0 0 0
          0 0 0 0 0 0
          0 0 0 0 0 0
          0 0 0 0 0 0
          0 0 0 0 0 0
          0 0 0 0 0 0
          0 0 0 0 0 0
          0 0 0 0 0 0
          0 0 0 0 0 0
          0 0 0 0 0 0
          0 0 0 0 0 0
          0 0 0 0 0 0
          0 0 0 0 0 0
          0 0 0 0 0 0
          0 0 0 0 0 0
          0 0 0 0 0 0
          0 0 0 0 0 0
          0 0 0 0 0 0
          0 0 0 0 0 0
          0 0 0 0 0 0
          0 0 0 0 0 0
          0 0 0 0 0 0
          0 0 0 0 0 0
          0 0 0 0 0 0
          0 0 0 0 0 0
          0 0 0 0 0 0
          0 0 0 0 0 0
          0 0 0 0 0 0
          0 0 0 0 0 0
          0 0 0 0 0 0
          0 0 0 0 0 0
          0 0 0 0 0 0
          0 0 0 0 0 0
          0 0 0 0 0 0
          0 0 0 0 0 0
          0 0 0 0 0 0
          0 0 0 0 0 0
          0 0 0 0 0 0
          0 0 0 0 0 0
          0 0 0 0 0 0
          0 0 0 0 0 0
          0 0 0 0 0 0
          0 0 0 0 0 0
          0 0 0 0 0 0
          0 0 0 0 0 0
          0 0 0 0 0 0
          0 0 0 0 0 0
          0 0 0 0 0 0
          0 0 0 0 0 0
          0 0 0 0 0 0
          0 0 0 0 0 0
          0 0 0 0 0 0
          0 0 0 0 0 0
          0 0 0 0 0 0
          0 0 0 0 0 0
          0 0 0 0 0 0
          0 0 0 0 0 0
          0 0 0 0 0 0
          0 0 0 0 0 0
          0 0 0 0 0 0
          0 0 0 0 0 0
          0 0 0 0 0 0
          0 0 0 0 0 0
          0 0 0 0 0 0
          0 0 0 0 0 0
          0 0 0 0 0 0
          0 0 0 0 0 0
          0 0 0 0 0 0
          0 0 0 0 0 0
          0 0 0 0 0 0
          0 0 0 0 0 0
          0 0 0 0 0 0
          0 0 0 0 0 0
          0 0 0 0 0 0
          0 0 0 0 0 0
          0 0 0 0 0 0
          0 0 0 0 0 0
          0 0 0 0 0 0
          0 0 0 0 0 0
          0 0 0 0 0 0
          0 0 0 0 0 0
          0 0 0 0 0 0
          0 0 0 0 0 0
          0 0 0 0 0 0
          0 0 0 0 0 0
          0 0 0 0 0 0
          0 0 0 0 0 0
          0 0 0 0 0 0
          0 0 0 0 0 0
          0 0 0 0 0 0
          0 0 0 0 0 0
          0 0 0 0 0 0
          0 0 0 0 0 0
          0 0 0 0 0 0
          0 0 0 0 0 0
          0 0 0 0 0 0
          0 0 0 0 0 0
          0 0 0 0 0 0
          0 0 0 0 0 0
          0 0 0 0 0 0
          0 0 0 0 0 0
          0 0 0 0 0 0
          0 0 0 0 0 0
          0 0 0 0 0 0
          0 0 0 0 0 0
          0 0 0 0 0 0
          0 0 0 0 0 0
          0 0 0 0 0 0
          0 0 0 0 0 0
          0 0 0 0 0 0
          0 0 0 0 0 0
          0 0 0 0 0 0
          0 0 0 0 0 0
          0 0 0 0 0 0
          0 0 0 0 0 0
          0 0 0 0 0 0
          0 0 0 0 0 0
          0 0 0 0 0 0
          0 0
        </DataArray>
      </CellData>
      <Points>
        <DataArray type="Float64" Name="Points" NumberOfComponents="3" format="ascii" RangeMin="5514669.260652951" RangeMax="5515211.344349111">
          485279 5493276 366.57000000000005 485279 5493776 364.50325
          485779 5493776 444.76975000000004 485779 5493276 488.435
          485279 5493296 375.14374999999995 485279 5493316 381.509
          485279 5493336 386.38924999999995 485279 5493356 388.69025
          485279 5493376 388.4805 485279 5493396 391.29975
          485279 5493416 395.32375 485279 5493436 399.394
          485279 5493456 401.82725 485279 5493476 399.59900000000005
          485279 5493496 395.9705 485279 5493516 391.913
          485279 5493536 386.94825 485279 5493556 382.135
          485279 5493576 377.6805 485279 5493596 372.3915
          485279 5493616 364.7965 485279 5493636 354.698
          485279 5493656 345.11825 485279 5493676 336.50025
          485279 5493696 331.67150000000004 485279 5493716 333.3035
          485279 5493736 342.11699999999996 485279 5493756 354.17825
          485299 5493776 368.53249999999997 485319 5493776 371.939
          485339 5493776 376.3155 485359 5493776 381.02525
          485379 5493776 385.0905 485399 5493776 386.56975
          485419 5493776 386.94725000000005 485439 5493776 388.84975
          485459 5493776 390.12525 485479 5493776 392.241
          485499 5493776 394.18425 485519 5493776 396.51124999999996
          485539 5493776 398.65525 485559 5493776 400.614
          485579 5493776 403.322 485599 5493776 406.38525
          485619 5493776 409.94625 485639 5493776 412.81625
          485659 5493776 417.99525 485679 5493776 422.44675
          485699 5493776 426.77774999999997 485719 5493776 431.35
          485739 5493776 436.23575 485759 5493776 440.33625
          485779 5493756 444.94475 485779 5493736 445.4605
          485779 5493716 446.13075 485779 5493696 446.2165
          485779 5493676 447.4605 485779 5493656 450.45525
          485779 5493636 455.0325 485779 5493616 459.5425
          485779 5493596 465.84925 485779 5493576 468.03324999999995
          485779 5493556 469.5955 485779 5493536 468.504
          485779 5493516 465.1155 485779 5493496 460.01574999999997
          485779 5493476 457.134 485779 5493456 455.1365
          485779 5493436 453.0725 485779 5493416 455.78700000000003
          485779 5493396 460.51475 485779 5493376 465.35425
          485779 5493356 470.945 485779 5493336 476.825
          485779 5493316 481.395 485779 5493296 485.28000000000003
          485759 5493276 485.652 485739 5493276 482.51349999999996
          485719 5493276 477.65500000000003 485699 5493276 472.20399999999995
          485679 5493276 467.89099999999996 485659 5493276 464.3195
          485639 5493276 460.7985 485619 5493276 456.592
          485599 5493276 453.23199999999997 485579 5493276 449.42949999999996
          485559 5493276 445.67575 485539 5493276 439.74100000000004
          485519 5493276 433.32574999999997 485499 5493276 428.61350000000004
          485479 5493276 422.35499999999996 485459 5493276 416.34375
          485439 5493276 412.52625 485419 5493276 407.749
          485399 5493276 400.7915 485379 5493276 395.18125
          485359 5493276 391.40250000000003 485339 5493276 386.23900000000003
          485319 5493276 380.67925 485299 5493276 373.63599999999997
          485293.8895181525 5493495.252561142 397.24292943241164 485297.985010766 5493472.555348164 401.9116198062055
          485309.2947519731 5493294.829647404 383.9156897860872 485319.1405821196 5493317.233006396 394.61014592392434
          485331.5813583146 5493295.754084105 391.80740334846894 485295.7458115747 5493306.216560047 383.0263829374161
          485403.0980372808 5493738.158925265 372.7626692747578 485395.4434193068 5493714.136044293 365.25083039433264
          485384.4667970437 5493734.175387203 368.7016662031187 485298.517375151 5493684.175150863 334.87644875735526
          485652.1917083706 5493645.120855262 417.0608369763869 485648.7894407487 5493623.36029218 418.54474731381043
          485637.5869781622 5493638.269904573 412.30774298876906 485407.3786657913 5493388.076736509 424.3887987905783
          485414.5451640916 5493401.818038696 423.17541488052325 485422.0263823048 5493389.063315866 426.46152775251267
          485566.2384603773 5493425.646316237 429.58566176329197 485545.5108994807 5493414.157314379 433.9933602052937
          485544.8033164654 5493437.882801433 425.97649811868 485435.0999974753 5493405.032681932 425.9507657862623
          485416.3379453393 5493716.764018573 368.75396551908045 485527.3369735977 5493422.175374673 431.54407253851457
          485293.3417208838 5493358.119316638 393.3566239265235 485305.8089353423 5493338.581724979 395.9218684290105
          485316.7064426622 5493360.513264299 402.4623432836684 485336.3419673077 5493359.556218564 409.5279036447326
          485330.9258001414 5493336.818504119 403.96799366164 485348.6639702449 5493342.322448338 410.3156491185021
          485433.4696650736 5493756.94793788 382.77211494866685 485412.783345721 5493758.200896014 380.20517852045884
          485678.98593434 5493290.299263606 467.89292777341376 485300.5349472986 5493381.620910552 396.83816646220293
          485694.0504487396 5493625.621053463 430.8268792737565 485688.6506246854 5493651.583051949 426.4430658678581
          485706.4767104626 5493643.154324089 431.44303555369675 485424.5245043985 5493737.331688185 376.140530024605
          485419.5125643135 5493418.968676734 419.7638353643878 485397.8140950212 5493407.802266998 419.7217011423021
          485390.4616149634 5493758.697227007 379.0781293615141 485369.2455637264 5493755.014366619 374.00020073013343
          485765.7497309861 5493289.215744716 484.77915696002947 485749.8213935341 5493292.483900154 482.70889651301167
          485762.7605785067 5493304.627862393 482.1033161131683 485548.4447164031 5493297.083368952 445.37784172141477
          485530.2812827535 5493289.768681583 439.15842292833867 485630.6615628633 5493756.482529244 411.17557212895343
          485648.4185367991 5493758.550462368 414.99283343391403 485457.4554850666 5493345.37775901 431.10860405061874
          485467.4817181067 5493331.468118368 430.1932066950235 485449.7305585474 5493327.764994252 426.31020273591
          485723.1106738866 5493547.300707246 451.0723306591102 485714.0830080505 5493563.333239981 448.08532938393154
          485732.9063885244 5493562.570067224 454.7357508164807 485477.0848704929 5493346.866471459 435.17689948329974
          485438.9458926227 5493636.424603004 355.8550907866197 485450.8134833189 5493647.988881497 359.7662528983284
          485456.8029238061 5493628.977569413 358.3936269561618 485567.3030074493 5493404.853851316 436.8157733845596
          485585.5375498178 5493415.761892247 432.98271373835144 485363.2964626343 5493464.32464727 404.6312696563087
          485375.8828680751 5493446.845461025 409.08357422912536 485356.0186993659 5493445.628611031 409.1110986219698
          485719.6238088251 5493349.724122454 466.15771739869285 485699.112001518 5493350.689257791 463.1897752519338
          485708.8483135895 5493368.459552562 460.04463386732675 485324.9692822066 5493758.19824155 363.90786252687224
          485528.8747469699 5493402.829201262 438.8799638302305 485548.500413505 5493393.354931024 440.8766586129269
          485758.7518753276 5493703.450716065 440.79583460659893 485675.9426432124 5493385.703339286 450.57691630114005
          485671.3607796999 5493410.218377053 443.80170343416347 485692.4823604233 5493400.789345717 447.538088812536
          485654.4738878803 5493391.992330232 445.916303316812 485717.7509704535 5493427.081568819 440.9762424541575
          485732.8170618949 5493411.790329803 448.1386368659047 485711.1883505976 5493409.089137032 446.54867597284544
          485360.3257133187 5493732.104268129 362.2811462499684 485345.5202773887 5493752.110656756 366.50658481111907
          485760.3184241758 5493361.70652163 467.80089065229356 485764.1105173312 5493343.397449455 473.7059021714377
          485726.9713045264 5493398.168595938 451.47426725672597 485370.0966788569 5493295.813587246 400.51379088098076
          485351.0073395636 5493290.121913032 394.94270048011185 485352.3818261944 5493306.669169981 401.19591805258995
          485727.9190437755 5493381.546170685 458.02831785006265 485746.7529546736 5493394.72528367 454.9239677349625
          485382.1748038803 5493624.551098192 346.82843052388665 485381.1938514697 5493599.801036922 356.5056174619041
          485365.0619164272 5493615.530061896 352.985992070719 485762.0504096856 5493583.955221212 462.3867397805336
          485329.9648626313 5493662.656629997 339.9930696758781 485339.2616986259 5493642.879665601 342.02848322391173
          485314.3416665276 5493645.896573386 344.08259216575846 485352.5137173529 5493657.395851788 345.45374819980066
          485757.3636269909 5493562.811054869 463.0046335750245 485745.6888287293 5493594.682539799 453.97717174482983
          485743.0204177819 5493576.958593244 457.5424958023933 485723.6161206408 5493584.534938852 450.0605027793448
          485371.7868771188 5493318.802569243 408.87850981662535 485381.2537129649 5493339.343392359 416.71355312562366
          485392.710033404 5493326.353598802 415.3712073859967 485364.6964495157 5493339.380518203 413.6345317699555
          485395.1742262659 5493612.67818977 354.8892482862369 485296.5207342862 5493660.46940526 339.91941279060677
          485312.5304586164 5493667.21017831 335.98941618213144 485706.6336024217 5493603.860076793 438.0869981876324
          485716.0574145485 5493626.278507602 436.00687602851633 485730.573094988 5493608.852441557 444.25839927517546
          485339.8810765164 5493584.852948424 371.56673093596095 485321.1319806483 5493574.9870771 378.12244931252644
          485321.2046232883 5493595.287516274 370.0478814362051 485306.7938487697 5493586.137402775 375.42573527486206
          485705.6471395154 5493442.196273896 436.39829196340537 485725.1197674185 5493445.062594931 440.4020384585145
          485739.975600496 5493428.251612011 444.6850653292422 485637.3558133028 5493429.270322766 432.61085406204705
          485633.3556923822 5493447.444466622 426.27105553704996 485648.9723077338 5493443.911321688 429.07647511817214
          485665.6058032481 5493445.982508433 429.8753856505883 485649.781440943 5493461.369416012 422.7725110969144
          485671.2749021105 5493463.585350309 426.34506298183453 485762.8097959196 5493542.843989554 464.0562239617612
          485660.1887065508 5493477.790851193 420.2454354616747 485308.0500900685 5493626.425981204 355.24618455752056
          485299.6014523026 5493605.55919079 367.80754194203365 485291.9347206771 5493625.220909989 359.11428221160327
          485762.6903329474 5493600.362885785 457.475747595642 485467.9356780526 5493647.879704555 363.9217772022471
          485705.8716666867 5493542.177873379 444.0229497581449 485724.4166848611 5493528.633138483 449.65659560856875
          485742.3274194569 5493541.334289712 457.39427317374134 485745.9803665532 5493445.732687019 444.58170026246916
          485762.3064949579 5493429.089096521 450.59955523085245 485736.3655018716 5493629.860224671 441.7673886523776
          485757.888784148 5493631.87552454 448.48607831806976 485752.0344237806 5493613.605602725 450.22731144022737
          485362.5245502856 5493637.632345708 343.1573897435471 485371.8394798717 5493657.91653646 349.11305675775407
          485743.7713251178 5493312.803325807 478.1033114408613 485762.5786530618 5493324.232658694 478.03544581982015
          485688.3637851033 5493593.877085586 435.4010719051047 485702.0909583645 5493579.23980773 442.62903130365794
          485682.3987021554 5493572.322504089 435.3446722389173 485292.7377482053 5493586.424970502 375.30930357405236
          485299.2934394042 5493568.428259202 380.6341452421988 485671.1639564669 5493588.813740872 429.9077520446325
          485709.5213689644 5493520.57990104 442.74867371695245 485687.8928514537 5493524.405767045 435.41810052329765
          485431.7649326913 5493478.894707988 405.3450214400961 485436.8528823477 5493457.324552417 412.8392256881498
          485417.5718721916 5493468.956907392 406.480648068086 485383.9337519736 5493560.019244866 373.0859637765676
          485393.8482367711 5493578.577335732 367.59614000555234 485404.6558613063 5493560.797799827 376.98297936104603
          485448.0570434697 5493478.161144494 406.42274126494584 485472.7578804468 5493702.439845848 373.31163946681363
          485450.7553773146 5493710.551844906 372.7482701699164 485472.6867556511 5493723.559925719 378.685722323944
          485580.4430941422 5493514.78719072 392.4907186134022 485597.7514664743 5493524.388587071 397.6210024290525
          485600.843236829 5493508.129662085 401.0609954950962 485495.1469467685 5493691.815715746 374.1584381779384
          485475.2464397346 5493677.943073659 367.69412434718106 485585.5827177214 5493534.71277786 392.47975363681167
          485412.4910710205 5493578.168820642 372.7874464270638 485586.6948163951 5493322.552882696 455.3886009776538
          485599.9671740361 5493314.66327554 457.4075870384107 485586.7848162155 5493305.604198289 454.51739709911084
          485602.6298487262 5493332.987172036 456.40351859726627 485666.0774583209 5493536.703325385 427.3737296496636
          485684.0702763163 5493549.402038886 435.7576277045121 485763.4385328683 5493450.584064987 450.68565396067777
          485757.325125662 5493465.417022703 449.31124916502364 485682.9171889249 5493506.927233579 430.04817617040356
          485664.6896476917 5493513.389860057 421.9273907626482 485362.3794672614 5493499.149346494 395.31377551539987
          485371.6548634662 5493482.789482858 398.7899393388216 485351.368755769 5493483.291762609 401.03788971990696
          485624.4629201131 5493644.34900149 407.1706123971736 485624.9015531042 5493624.605804349 409.313078637642
          485636.3217419766 5493655.186045046 410.44123270240357 485578.8863273136 5493338.384733574 453.30686719694313
          485555.1863967394 5493336.657637154 450.583587327451 485566.0291727625 5493357.27208203 449.8093194616618
          485566.5607334716 5493317.466256273 452.00755023918646 485463.0707917128 5493378.940801951 434.675520145995
          485469.4323003715 5493362.00614658 435.4859936478939 485444.2690523154 5493362.685293335 430.8942771512677
          485626.6622677992 5493740.56524789 409.02829236409025 485642.2595678471 5493740.963631806 412.56289487761
          485631.7868078724 5493723.346768186 409.3243001058227 485676.8402903575 5493710.833442651 420.0813142943413
          485696.3305483884 5493697.669738273 424.457160330115 485677.984671755 5493690.236907598 420.6527692899361
          485642.7443165399 5493526.80162442 415.3180462756623 485646.0743447143 5493508.868894998 413.2819217207084
          485629.2604834124 5493512.361664016 407.76345265558666 485509.2003677326 5493743.351841172 387.8400094571025
          485491.1767969882 5493757.093696785 388.52551419029567 485519.0015537178 5493759.813115805 392.8472403196406
          485617.029297859 5493396.819529639 440.87041657788114 485632.6794815447 5493385.047406442 446.0850139694436
          485613.4910014117 5493378.001284536 446.0823247383727 485492.5977332967 5493734.712598562 383.82381391023165
          485540.208312284 5493477.543475447 409.103631998997 485533.8667224374 5493458.145620774 418.33559486691047
          485521.0668191233 5493475.576838864 410.42142244535773 485616.3115895177 5493431.231118166 428.74587965102626
          485605.4916143711 5493412.786707331 434.3664205731076 485598.8273407134 5493427.939566794 428.6664080669241
          485484.1838015377 5493377.453286879 437.82415260856214 485363.0243702891 5493561.238740018 375.6145503101878
          485350.7538954851 5493543.524486564 385.42887664408875 485339.9750549651 5493561.453887582 380.7794202142832
          485329.0344452919 5493539.999309424 390.10045064417943 485742.1257178786 5493518.655787868 453.96050545180464
          485723.2953120134 5493504.921464614 443.7939199933192 485490.5298011038 5493360.713266847 438.7622626658298
          485759.391037694 5493525.725740685 461.0067662361363 485760.2499211792 5493508.201129039 456.4348736616332
          485617.4439888582 5493522.905239134 403.8324133863266 485749.7846763267 5493754.875474452 437.95368635180046
          485728.9160826986 5493758.345635213 433.3639579120236 485479.4131935111 5493525.768547202 390.2460797872042
          485482.3775066463 5493541.766631776 383.84134851378514 485497.2952097518 5493525.636701867 388.56636357611194
          485589.8160344305 5493391.8130975 441.19127752663434 485584.0173866058 5493436.683408491 425.06162504207043
          485766.4979321059 5493761.383459194 441.8210453150886 485765.6531633623 5493743.562480107 442.0633709129607
          485625.4278754907 5493413.15503922 436.42391339043763 485342.4479494573 5493524.959543004 392.77105943553886
          485326.6744256569 5493521.162137735 394.67929541789 485463.5607481066 5493611.47684303 360.78993867069454
          485480.825174321 5493610.606001863 363.52060301297854 485468.2857231528 5493593.809109482 367.7306548623954
          485434.5152962063 5493719.819012104 372.66084061943604 485748.3898641332 5493733.663710184 437.5634036405143
          485763.0207997991 5493725.052794723 441.38395935095673 485747.3298959711 5493717.63986198 437.3031444839928
          485722.430616195 5493645.150341032 435.602299885752 485381.0806493936 5493497.711377871 393.03463707351636
          485373.1536578284 5493509.902782695 390.68011963407196 485358.276824385 5493515.892940965 392.0348846553105
          485400.7139002784 5493500.4630509 393.542976905574 485388.0260666385 5493485.33572855 397.04815291821126
          485401.079419456 5493478.26214116 400.9020479519545 485590.0160305424 5493477.231458129 410.6611399666516
          485604.8196944245 5493490.075609963 407.2515108559098 485607.1794420109 5493467.857368253 416.39761537889626
          485323.3076544861 5493682.853132042 340.00831699725643 485346.3892805515 5493677.76611901 347.13209165854187
          485366.7131834874 5493676.65755657 350.82841592177294 485629.7986963094 5493467.301665226 419.58395018888115
          485617.9143064867 5493451.582955872 423.4614721083981 485694.5682530099 5493740.125157141 424.7625145169401
          485692.4814782953 5493719.323310911 423.9768159175886 485676.9776414116 5493731.617117031 420.5494175889962
          485498.3872629298 5493608.614466169 368.9787474967609 485491.4790984146 5493627.327553694 367.96492288597
          485474.0063956603 5493628.075618823 362.9576485655544 485586.6232107594 5493494.82769467 402.8607377105229
          485575.7799909551 5493478.620069593 408.8125137815706 485310.1386727701 5493529.885046438 391.97618271886313
          485292.059044249 5493528.305160373 390.7175779767976 485295.6094339539 5493545.029668176 386.8735538369082
          485338.6720471822 5493727.567191871 354.80892797444164 485371.3165885475 5493713.891291634 358.95133598298037
          485349.3713120478 5493710.591124726 352.72559747174654 485498.5752139413 5493503.57023776 398.37627452463244
          485513.8131079201 5493515.858995461 391.96630328904996 485514.5846625476 5493495.711624605 401.9314006432377
          485688.5621206708 5493448.019504155 432.0669712784337 485710.9196714968 5493389.511607493 453.2513887214732
          485396.2555490529 5493340.710256442 419.998717703905 485413.0229074226 5493335.655902053 422.1062151295097
          485697.6962473079 5493561.502521986 441.44498251007934 485310.3957275339 5493704.175838187 340.59502611602136
          485293.1708085177 5493703.646066561 334.1393470811455 485300.2795145835 5493451.411858882 403.2381917082888
          485303.5613773672 5493426.656780372 401.69715708913475 485337.927473302 5493314.624713032 400.62381728255514
          485351.8912300105 5493324.898153231 406.8836745180006 485506.649787466 5493374.619820288 440.90116610819325
          485514.4777547533 5493393.153991388 440.48748410003066 485531.7042213633 5493380.234549624 443.71464164390875
          485316.6121941264 5493555.24507464 385.3957843922483 485345.6201934533 5493377.988689959 411.91659555377123
          485361.8468836172 5493380.436551572 416.15150935393825 485356.9385548481 5493359.812899732 414.5270335038908
          485376.6092946422 5493371.899939463 420.0011975071706 485688.352354214 5493322.913654437 467.35840421048783
          485706.0323382351 5493332.094880136 468.1121835980487 485710.2078780963 5493312.897384538 472.11893449902914
          485479.7987929911 5493509.484436529 396.2940153567654 485464.5014138304 5493514.849884883 394.5149414539027
          485391.4427259949 5493290.245729412 403.7444437727498 485461.5505291513 5493532.792210011 389.07424522547905
          485479.7358139641 5493489.623089003 403.994897761659 485646.2824048135 5493339.047007032 458.9350465798191
          485665.3551308486 5493348.188596472 459.02186395859155 485666.8468096741 5493330.846807445 462.87561924723707
          485384.4478416384 5493692.674075437 357.50562253946117 485360.4029666138 5493694.572208405 351.50678299319424
          485728.1800035065 5493329.107299008 472.1510390357616 485748.4369262586 5493332.20503507 474.8874169626803
          485622.0444935752 5493483.171034959 412.21502916941586 485498.0809508171 5493479.694331245 409.0323241853413
          485695.7283955822 5493674.927799533 425.54168945489903 485717.3453519891 5493685.626684777 431.20826107800866
          485404.8426090475 5493631.372421091 350.671165429166 485385.9116847897 5493646.485124332 349.3717801939364
          485561.0752541402 5493512.984122104 393.8067742340976 485563.6643939991 5493531.249929945 386.8510059534091
          485549.163177703 5493520.574886987 389.5763028260141 485335.8851900492 5493391.790774079 408.35123583036216
          485325.8751817193 5493378.096414874 405.9942201196485 485453.3478593497 5493758.850503561 385.2075227874303
          485669.5393353135 5493310.963390877 466.23202498532635 485651.4156881836 5493294.694131883 463.509930311277
          485555.727857754 5493696.858829645 389.4356110028533 485561.8188154786 5493711.287605238 392.1948272537845
          485579.3366285748 5493699.605584553 394.97238989606024 485568.5529060643 5493463.498270176 414.7682876554507
          485557.9283714037 5493479.66869131 408.32739646800763 485339.0804668362 5493409.385267613 408.54648513643883
          485356.8373070579 5493398.28553685 413.88309223112867 485376.9201954785 5493392.791747269 419.0981808075859
          485377.011070983 5493411.901073072 416.34742786933793 485361.5187022987 5493423.956193654 412.3187273402358
          485506.934452515 5493550.190630266 377.26914803348325 485696.7353947677 5493758.701586992 425.7709284358007
          485388.1381286769 5493305.761759709 407.2987342608951 485408.173584972 5493302.599769429 412.1041408457516
          485294.6118322842 5493642.074818682 349.16071928756276 485747.3790262296 5493663.726784503 440.1516420827784
          485762.4481295955 5493669.446648936 443.80641770006383 485760.434968581 5493651.512461264 445.7794282909389
          485660.5183716192 5493744.206700583 417.25622123907766 485655.2361661461 5493723.560822753 414.849764856249
          485662.5197986853 5493370.298324817 453.2209885255564 485648.608766681 5493357.844122439 454.7140750041998
          485527.2865584826 5493548.252179598 379.1710374871894 485541.4318639769 5493560.307560121 379.28444899282624
          485542.3796032203 5493538.013522168 381.6423326802214 485545.6606211521 5493500.996671508 398.4940056863454
          485706.7134127131 5493728.508061694 427.4241275913205 485712.5334336156 5493710.191148045 429.135651732836
          485414.2253598701 5493609.796662101 358.50138280170984 485419.1371389453 5493592.927781073 366.8736298982054