<?xml version="1.0"?>
<VTKFile type="UnstructuredGrid" version="0.1" byte_order="LittleEndian" compressor="vtkZLibDataCompressor">
  <UnstructuredGrid>
    <Piece NumberOfPoints="1331" NumberOfCells="1000">
      <PointData>
      </PointData>
      <CellData>
        <DataArray type="UInt32" Name="MaterialIDs" format="ascii" RangeMin="0" RangeMax="0">
          0 0 0 0 0 0
          0 0 0 0 0 0
          0 0 0 0 0 0
          0 0 0 0 0 0
          0 0 0 0 0 0
          0 0 0 0 0 0
          0 0 0 0 0 0
          0 0 0 0 0 0
          0 0 0 0 0 0
          0 0 0 0 0 0
          0 0 0 0 0 0
          0 0 0 0 0 0
          0 0 0 0 0 0
          0 0 0 0 0 0
          0 0 0 0 0 0
          0 0 0 0 0 0
          0 0 0 0 0 0
          0 0 0 0 0 0
          0 0 0 0 0 0
          0 0 0 0 0 0
          0 0 0 0 0 0
          0 0 0 0 0 0
          0 0 0 0 0 0
          0 0 0 0 0 0
          0 0 0 0 0 0
          0 0 0 0 0 0
          0 0 0 0 0 0
          0 0 0 0 0 0
          0 0 0 0 0 0
          0 0 0 0 0 0
          0 0 0 0 0 0
          0 0 0 0 0 0
          0 0 0 0 0 0
          0 0 0 0 0 0
          0 0 0 0 0 0
          0 0 0 0 0 0
          0 0 0 0 0 0
          0 0 0 0 0 0
          0 0 0 0 0 0
          0 0 0 0 0 0
          0 0 0 0 0 0
          0 0 0 0 0 0
          0 0 0 0 0 0
          0 0 0 0 0 0
          0 0 0 0 0 0
          0 0 0 0 0 0
          0 0 0 0 0 0
          0 0 0 0 0 0
          0 0 0 0 0 0
          0 0 0 0 0 0
          0 0 0 0 0 0
          0 0 0 0 0 0
          0 0 0 0 0 0
          0 0 0 0 0 0
          0 0 0 0 0 0
          0 0 0 0 0 0
          0 0 0 0 0 0
          0 0 0 0 0 0
          0 0 0 0 0 0
          0 0 0 0 0 0
          0 0 0 0 0 0
          0 0 0 0 0 0
          0 0 0 0 0 0
          0 0 0 0 0 0
          0 0 0 0 0 0
          0 0 0 0 0 0
          0 0 0 0 0 0
          0 0 0 0 0 0
          0 0 0 0 0 0
          0 0 0 0 0 0
          0 0 0 0 0 0
          0 0 0 0 0 0
          0 0 0 0 0 0
          0 0 0 0 0 0
          0 0 0 0 0 0
          0 0 0 0 0 0
          0 0 0 0 0 0
          0 0 0 0 0 0
          0 0 0 0 0 0
          0 0 0 0 0 0
          0 0 0 0 0 0
          0 0 0 0 0 0
          0 0 0 0 0 0
          0 0 0 0 0 0
          0 0 0 0 0 0
          0 0 0 0 0 0
          0 0 0 0 0 0
          0 0 0 0 0 0
          0 0 0 0 0 0
          0 0 0 0 0 0
          0 0 0 0 0 0
          0 0 0 0 0 0
          0 0 0 0 0 0
          0 0 0 0 0 0
          0 0 0 0 0 0
          0 0 0 0 0 0
          0 0 0 0 0 0
          0 0 0 0 0 0
          0 0 0 0 0 0
          0 0 0 0 0 0
          0 0 0 0 0 0
          0 0 0 0 0 0
          0 0 0 0 0 0
          0 0 0 0 0 0
          0 0 0 0 0 0
          0 0 0 0 0 0
          0 0 0 0 0 0
          0 0 0 0 0 0
          0 0 0 0 0 0
          0 0 0 0 0 0
          0 0 0 0 0 0
          0 0 0 0 0 0
          0 0 0 0 0 0
          0 0 0 0 0 0
          0 0 0 0 0 0
          0 0 0 0 0 0
          0 0 0 0 0 0
          0 0 0 0 0 0
          0 0 0 0 0 0
          0 0 0 0 0 0
          0 0 0 0 0 0
          0 0 0 0 0 0
          0 0 0 0 0 0
          0 0 0 0 0 0
          0 0 0 0 0 0
          0 0 0 0 0 0
          0 0 0 0 0 0
          0 0 0 0 0 0
          0 0 0 0 0 0
          0 0 0 0 0 0
          0 0 0 0 0 0
          0 0 0 0 0 0
          0 0 0 0 0 0
          0 0 0 0 0 0
          0 0 0 0 0 0
          0 0 0 0 0 0
          0 0 0 0 0 0
          0 0 0 0 0 0
          0 0 0 0 0 0
          0 0 0 0 0 0
          0 0 0 0 0 0
          0 0 0 0 0 0
          0 0 0 0 0 0
          0 0 0 0 0 0
          0 0 0 0 0 0
          0 0 0 0 0 0
          0 0 0 0 0 0
          0 0 0 0 0 0
          0 0 0 0 0 0
          0 0 0 0 0 0
          0 0 0 0 0 0
          0 0 0 0 0 0
          0 0 0 0 0 0
          0 0 0 0 0 0
          0 0 0 0 0 0
          0 0 0 0 0 0
          0 0 0 0 0 0
          0 0 0 0 0 0
          0 0 0 0 0 0
          0 0 0 0 0 0
          0 0 0 0 0 0
          0 0 0 0 0 0
          0 0 0 0 0 0
          0 0 0 0 0 0
          0 0 0 0 0 0
          0 0 0 0 0 0
          0 0 0 0
        </DataArray>
      </CellData>
      <Points>
        <DataArray type="Float64" Name="Points" NumberOfComponents="3" format="ascii" RangeMin="0" RangeMax="1.7320508076">
          0 0 0 0.1 0 0
          0.2 0 0 0.3 0 0
          0.4 0 0 0.5 0 0
          0.6 0 0 0.7 0 0
          0.8 0 0 0.9 0 0
          1 0 0 0 0.1 0
          0.1 0.1 0 0.2 0.1 0
          0.3 0.1 0 0.4 0.1 0
          0.5 0.1 0 0.6 0.1 0
          0.7 0.1 0 0.8 0.1 0
          0.9 0.1 0 1 0.1 0
          0 0.2 0 0.1 0.2 0
          0.2 0.2 0 0.3 0.2 0
          0.4 0.2 0 0.5 0.2 0
          0.6 0.2 0 0.7 0.2 0
          0.8 0.2 0 0.9 0.2 0
          1 0.2 0 0 0.3 0
          0.1 0.3 0 0.2 0.3 0
          0.3 0.3 0 0.4 0.3 0
          0.5 0.3 0 0.6 0.3 0
          0.7 0.3 0 0.8 0.3 0
          0.9 0.3 0 1 0.3 0
          0 0.4 0 0.1 0.4 0
          0.2 0.4 0 0.3 0.4 0
          0.4 0.4 0 0.5 0.4 0
          0.6 0.4 0 0.7 0.4 0
          0.8 0.4 0 0.9 0.4 0
          1 0.4 0 0 0.5 0
          0.1 0.5 0 0.2 0.5 0
          0.3 0.5 0 0.4 0.5 0
          0.5 0.5 0 0.6 0.5 0
          0.7 0.5 0 0.8 0.5 0
          0.9 0.5 0 1 0.5 0
          0 0.6 0 0.1 0.6 0
          0.2 0.6 0 0.3 0.6 0
          0.4 0.6 0 0.5 0.6 0
          0.6 0.6 0 0.7 0.6 0
          0.8 0.6 0 0.9 0.6 0
          1 0.6 0 0 0.7 0
          0.1 0.7 0 0.2 0.7 0
          0.3 0.7 0 0.4 0.7 0
          0.5 0.7 0 0.6 0.7 0
          0.7 0.7 0 0.8 0.7 0
          0.9 0.7 0 1 0.7 0
          0 0.8 0 0.1 0.8 0
          0.2 0.8 0 0.3 0.8 0
          0.4 0.8 0 0.5 0.8 0
          0.6 0.8 0 0.7 0.8 0
          0.8 0.8 0 0.9 0.8 0
          1 0.8 0 0 0.9 0
          0.1 0.9 0 0.2 0.9 0
          0.3 0.9 0 0.4 0.9 0
          0.5 0.9 0 0.6 0.9 0
          0.7 0.9 0 0.8 0.9 0
          0.9 0.9 0 1 0.9 0
          0 1 0 0.1 1 0
          0.2 1 0 0.3 1 0
          0.4 1 0 0.5 1 0
          0.6 1 0 0.7 1 0
          0.8 1 0 0.9 1 0
          1 1 0 0 0 0.1
          0.1 0 0.1 0.2 0 0.1
          0.3 0 0.1 0.4 0 0.1
          0.5 0 0.1 0.6 0 0.1
          0.7 0 0.1 0.8 0 0.1
          0.9 0 0.1 1 0 0.1
          0 0.1 0.1 0.1 0.1 0.1
          0.2 0.1 0.1 0.3 0.1 0.1
          0.4 0.1 0.1 0.5 0.1 0.1
          0.6 0.1 0.1 0.7 0.1 0.1
          0.8 0.1 0.1 0.9 0.1 0.1
          1 0.1 0.1 0 0.2 0.1
          0.1 0.2 0.1 0.2 0.2 0.1
          0.3 0.2 0.1 0.4 0.2 0.1
          0.5 0.2 0.1 0.6 0.2 0.1
          0.7 0.2 0.1 0.8 0.2 0.1
          0.9 0.2 0.1 1 0.2 0.1
          0 0.3 0.1 0.1 0.3 0.1
          0.2 0.3 0.1 0.3 0.3 0.1
          0.4 0.3 0.1 0.5 0.3 0.1
          0.6 0.3 0.1 0.7 0.3 0.1
          0.8 0.3 0.1 0.9 0.3 0.1
          1 0.3 0.1 0 0.4 0.1
          0.1 0.4 0.1 0.2 0.4 0.1
          0.3 0.4 0.1 0.4 0.4 0.1
          0.5 0.4 0.1 0.6 0.4 0.1
          0.7 0.4 0.1 0.8 0.4 0.1
          0.9 0.4 0.1 1 0.4 0.1
          0 0.5 0.1 0.1 0.5 0.1
          0.2 0.5 0.1 0.3 0.5 0.1
          0.4 0.5 0.1 0.5 0.5 0.1
          0.6 0.5 0.1 0.7 0.5 0.1
          0.8 0.5 0.1 0.9 0.5 0.1
          1 0.5 0.1 0 0.6 0.1
          0.1 0.6 0.1 0.2 0.6 0.1
          0.3 0.6 0.1 0.4 0.6 0.1
          0.5 0.6 0.1 0.6 0.6 0.1
          0.7 0.6 0.1 0.8 0.6 0.1
          0.9 0.6 0.1 1 0.6 0.1
          0 0.7 0.1 0.1 0.7 0.1
          0.2 0.7 0.1 0.3 0.7 0.1
          0.4 0.7 0.1 0.5 0.7 0.1
          0.6 0.7 0.1 0.7 0.7 0.1
          0.8 0.7 0.1 0.9 0.7 0.1
          1 0.7 0.1 0 0.8 0.1
          0.1 0.8 0.1 0.2 0.8 0.1
          0.3 0.8 0.1 0.4 0.8 0.1
          0.5 0.8 0.1 0.6 0.8 0.1
          0.7 0.8 0.1 0.8 0.8 0.1
          0.9 0.8 0.1 1 0.8 0.1
          0 0.9 0.1 0.1 0.9 0.1
          0.2 0.9 0.1 0.3 0.9 0.1
          0.4 0.9 0.1 0.5 0.9 0.1
          0.6 0.9 0.1 0.7 0.9 0.1
          0.8 0.9 0.1 0.9 0.9 0.1
          1 0.9 0.1 0 1 0.1
          0.1 1 0.1 0.2 1 0.1
          0.3 1 0.1 0.4 1 0.1
          0.5 1 0.1 0.6 1 0.1
          0.7 1 0.1 0.8 1 0.1
          0.9 1 0.1 1 1 0.1
          0 0 0.2 0.1 0 0.2
          0.2 0 0.2 0.3 0 0.2
          0.4 0 0.2 0.5 0 0.2
          0.6 0 0.2 0.7 0 0.2
          0.8 0 0.2 0.9 0 0.2
          1 0 0.2 0 0.1 0.2
          0.1 0.1 0.2 0.2 0.1 0.2
          0.3 0.1 0.2 0.4 0.1 0.2
          0.5 0.1 0.2 0.6 0.1 0.2
          0.7 0.1 0.2 0.8 0.1 0.2
          0.9 0.1 0.2 1 0.1 0.2
          0 0.2 0.2 0.1 0.2 0.2
          0.2 0.2 0.2 0.3 0.2 0.2
          0.4 0.2 0.2 0.5 0.2 0.2
          0.6 0.2 0.2 0.7 0.2 0.2
          0.8 0.2 0.2 0.9 0.2 0.2
          1 0.2 0.2 0 0.3 0.2
          0.1 0.3 0.2 0.2 0.3 0.2
          0.3 0.3 0.2 0.4 0.3 0.2
          0.5 0.3 0.2 0.6 0.3 0.2
          0.7 0.3 0.2 0.8 0.3 0.2
          0.9 0.3 0.2 1 0.3 0.2
          0 0.4 0.2 0.1 0.4 0.2
          0.2 0.4 0.2 0.3 0.4 0.2
          0.4 0.4 0.2 0.5 0.4 0.2
          0.6 0.4 0.2 0.7 0.4 0.2
          0.8 0.4 0.2 0.9 0.4 0.2
          1 0.4 0.2 0 0.5 0.2
          0.1 0.5 0.2 0.2 0.5 0.2
          0.3 0.5 0.2 0.4 0.5 0.2
          0.5 0.5 0.2 0.6 0.5 0.2
          0.7 0.5 0.2 0.8 0.5 0.2
          0.9 0.5 0.2 1 0.5 0.2
          0 0.6 0.2 0.1 0.6 0.2
          0.2 0.6 0.2 0.3 0.6 0.2
          0.4 0.6 0.2 0.5 0.6 0.2
          0.6 0.6 0.2 0.7 0.6 0.2
          0.8 0.6 0.2 0.9 0.6 0.2
          1 0.6 0.2 0 0.7 0.2
          0.1 0.7 0.2 0.2 0.7 0.2
          0.3 0.7 0.2 0.4 0.7 0.2
          0.5 0.7 0.2 0.6 0.7 0.2
          0.7 0.7 0.2 0.8 0.7 0.2
          0.9 0.7 0.2 1 0.7 0.2
          0 0.8 0.2 0.1 0.8 0.2
          0.2 0.8 0.2 0.3 0.8 0.2
          0.4 0.8 0.2 0.5 0.8 0.2
          0.6 0.8 0.2 0.7 0.8 0.2
          0.8 0.8 0.2 0.9 0.8 0.2
          1 0.8 0.2 0 0.9 0.2
          0.1 0.9 0.2 0.2 0.9 0.2
          0.3 0.9 0.2 0.4 0.9 0.2
          0.5 0.9 0.2 0.6 0.9 0.2
          0.7 0.9 0.2 0.8 0.9 0.2
          0.9 0.9 0.2 1 0.9 0.2
          0 1 0.2 0.1 1 0.2
          0.2 1 0.2 0.3 1 0.2
          0.4 1 0.2 0.5 1 0.2
          0.6 1 0.2 0.7 1 0.2
          0.8 1 0.2 0.9 1 0.2
          1 1 0.2 0 0 0.3
          0.1 0 0.3 0.2 0 0.3
          0.3 0 0.3 0.4 0 0.3
          0.5 0 0.3 0.6 0 0.3
          0.7 0 0.3 0.8 0 0.3
          0.9 0 0.3 1 0 0.3
          0 0.1 0.3 0.1 0.1 0.3
          0.2 0.1 0.3 0.3 0.1 0.3
          0.4 0.1 0.3 0.5 0.1 0.3
          0.6 0.1 0.3 0.7 0.1 0.3
          0.8 0.1 0.3 0.9 0.1 0.3
          1 0.1 0.3 0 0.2 0.3
          0.1 0.2 0.3 0.2 0.2 0.3
          0.3 0.2 0.3 0.4 0.2 0.3
          0.5 0.2 0.3 0.6 0.2 0.3
          0.7 0.2 0.3 0.8 0.2 0.3
          0.9 0.2 0.3 1 0.2 0.3
          0 0.3 0.3 0.1 0.3 0.3
          0.2 0.3 0.3 0.3 0.3 0.3
          0.4 0.3 0.3 0.5 0.3 0.3
          0.6 0.3 0.3 0.7 0.3 0.3
          0.8 0.3 0.3 0.9 0.3 0.3
          1 0.3 0.3 0 0.4 0.3
          0.1 0.4 0.3 0.2 0.4 0.3
          0.3 0.4 0.3 0.4 0.4 0.3
          0.5 0.4 0.3 0.6 0.4 0.3
          0.7 0.4 0.3 0.8 0.4 0.3
          0.9 0.4 0.3 1 0.4 0.3
          0 0.5 0.3 0.1 0.5 0.3
          0.2 0.5 0.3 0.3 0.5 0.3
          0.4 0.5 0.3 0.5 0.5 0.3
          0.6 0.5 0.3 0.7 0.5 0.3
          0.8 0.5 0.3 0.9 0.5 0.3
          1 0.5 0.3 0 0.6 0.3
          0.1 0.6 0.3 0.2 0.6 0.3
          0.3 0.6 0.3 0.4 0.6 0.3
          0.5 0.6 0.3 0.6 0.6 0.3
          0.7 0.6 0.3 0.8 0.6 0.3
          0.9 0.6 0.3 1 0.6 0.3
          0 0.7 0.3 0.1 0.7 0.3
          0.2 0.7 0.3 0.3 0.7 0.3
          0.4 0.7 0.3 0.5 0.7 0.3
          0.6 0.7 0.3 0.7 0.7 0.3
          0.8 0.7 0.3 0.9 0.7 0.3
          1 0.7 0.3 0 0.8 0.3
          0.1 0.8 0.3 0.2 0.8 0.3
          0.3 0.8 0.3 0.4 0.8 0.3
          0.5 0.8 0.3 0.6 0.8 0.3
          0.7 0.8 0.3 0.8 0.8 0.3
          0.9 0.8 0.3 1 0.8 0.3
          0 0.9 0.3 0.1 0.9 0.3
          0.2 0.9 0.3 0.3 0.9 0.3
          0.4 0.9 0.3 0.5 0.9 0.3
          0.6 0.9 0.3 0.7 0.9 0.3
          0.8 0.9 0.3 0.9 0.9 0.3
          1 0.9 0.3 0 1 0.3
          0.1 1 0.3 0.2 1 0.3
          0.3 1 0.3 0.4 1 0.3
          0.5 1 0.3 0.6 1 0.3
          0.7 1 0.3 0.8 1 0.3
          0.9 1 0.3 1 1 0.3
          0 0 0.4 0.1 0 0.4
          0.2 0 0.4 0.3 0 0.4
          0.4 0 0.4 0.5 0 0.4
          0.6 0 0.4 0.7 0 0.4
          0.8 0 0.4 0.9 0 0.4
          1 0 0.4 0 0.1 0.4
          0.1 0.1 0.4 0.2 0.1 0.4
          0.3 0.1 0.4 0.4 0.1 0.4
          0.5 0.1 0.4 0.6 0.1 0.4
          0.7 0.1 0.4 0.8 0.1 0.4
          0.9 0.1 0.4 1 0.1 0.4
          0 0.2 0.4 0.1 0.2 0.4
          0.2 0.2 0.4 0.3 0.2 0.4
          0.4 0.2 0.4 0.5 0.2 0.4
          0.6 0.2 0.4 0.7 0.2 0.4
          0.8 0.2 0.4 0.9 0.2 0.4
          1 0.2 0.4 0 0.3 0.4
          0.1 0.3 0.4 0.2 0.3 0.4
          0.3 0.3 0.4 0.4 0.3 0.4
          0.5 0.3 0.4 0.6 0.3 0.4
          0.7 0.3 0.4 0.8 0.3 0.4
          0.9 0.3 0.4 1 0.3 0.4
          0 0.4 0.4 0.1 0.4 0.4
          0.2 0.4 0.4 0.3 0.4 0.4
          0.4 0.4 0.4 0.5 0.4 0.4
          0.6 0.4 0.4 0.7 0.4 0.4
          0.8 0.4 0.4 0.9 0.4 0.4
          1 0.4 0.4 0 0.5 0.4
          0.1 0.5 0.4 0.2 0.5 0.4
          0.3 0.5 0.4 0.4 0.5 0.4
          0.5 0.5 0.4 0.6 0.5 0.4
          0.7 0.5 0.4 0.8 0.5 0.4
          0.9 0.5 0.4 1 0.5 0.4
          0 0.6 0.4 0.1 0.6 0.4
          0.2 0.6 0.4 0.3 0.6 0.4
          0.4 0.6 0.4 0.5 0.6 0.4
          0.6 0.6 0.4 0.7 0.6 0.4
          0.8 0.6 0.4 0.9 0.6 0.4
          1 0.6 0.4 0 0.7 0.4
          0.1 0.7 0.4 0.2 0.7 0.4
          0.3 0.7 0.4 0.4 0.7 0.4
          0.5 0.7 0.4 0.6 0.7 0.4
          0.7 0.7 0.4 0.8 0.7 0.4
          0.9 0.7 0.4 1 0.7 0.4
          0 0.8 0.4 0.1 0.8 0.4
          0.2 0.8 0.4 0.3 0.8 0.4
          0.4 0.8 0.4 0.5 0.8 0.4
          0.6 0.8 0.4 0.7 0.8 0.4
          0.8 0.8 0.4 0.9 0.8 0.4
          1 0.8 0.4 0 0.9 0.4
          0.1 0.9 0.4 0.2 0.9 0.4
          0.3 0.9 0.4 0.4 0.9 0.4
          0.5 0.9 0.4 0.6 0.9 0.4
          0.7 0.9 0.4 0.8 0.9 0.4
          0.9 0.9 0.4 1 0.9 0.4
          0 1 0.4 0.1 1 0.4
          0.2 1 0.4 0.3 1 0.4
          0.4 1 0.4 0.5 1 0.4
          0.6 1 0.4 0.7 1 0.4
          0.8 1 0.4 0.9 1 0.4
          1 1 0.4 0 0 0.5
          0.1 0 0.5 0.2 0 0.5
          0.3 0 0.5 0.4 0 0.5
          0.5 0 0.5 0.6 0 0.5
          0.7 0 0.5 0.8 0 0.5
          0.9 0 0.5 1 0 0.5
          0 0.1 0.5 0.1 0.1 0.5
          0.2 0.1 0.5 0.3 0.1 0.5
          0.4 0.1 0.5 0.5 0.1 0.5
          0.6 0.1 0.5 0.7 0.1 0.5
          0.8 0.1 0.5 0.9 0.1 0.5
          1 0.1 0.5 0 0.2 0.5
          0.1 0.2 0.5 0.2 0.2 0.5
          0.3 0.2 0.5 0.4 0.2 0.5
          0.5 0.2 0.5 0.6 0.2 0.5
          0.7 0.2 0.5 0.8 0.2 0.5
          0.9 0.2 0.5 1 0.2 0.5
          0 0.3 0.5 0.1 0.3 0.5
          0.2 0.3 0.5 0.3 0.3 0.5
          0.4 0.3 0.5 0.5 0.3 0.5
          0.6 0.3 0.5 0.7 0.3 0.5
          0.8 0.3 0.5 0.9 0.3 0.5
          1 0.3 0.5 0 0.4 0.5
          0.1 0.4 0.5 0.2 0.4 0.5
          0.3 0.4 0.5 0.4 0.4 0.5
          0.5 0.4 0.5 0.6 0.4 0.5
          0.7 0.4 0.5 0.8 0.4 0.5
          0.9 0.4 0.5 1 0.4 0.5
          0 0.5 0.5 0.1 0.5 0.5
          0.2 0.5 0.5 0.3 0.5 0.5
          0.4 0.5 0.5 0.5 0.5 0.5
          0.6 0.5 0.5 0.7 0.5 0.5
          0.8 0.5 0.5 0.9 0.5 0.5
          1 0.5 0.5 0 0.6 0.5
          0.1 0.6 0.5 0.2 0.6 0.5
          0.3 0.6 0.5 0.4 0.6 0.5
          0.5 0.6 0.5 0.6 0.6 0.5
          0.7 0.6 0.5 0.8 0.6 0.5
          0.9 0.6 0.5 1 0.6 0.5
          0 0.7 0.5 0.1 0.7 0.5
          0.2 0.7 0.5 0.3 0.7 0.5
          0.4 0.7 0.5 0.5 0.7 0.5
          0.6 0.7 0.5 0.7 0.7 0.5
          0.8 0.7 0.5 0.9 0.7 0.5
          1 0.7 0.5 0 0.8 0.5
          0.1 0.8 0.5 0.2 0.8 0.5
          0.3 0.8 0.5 0.4 0.8 0.5
          0.5 0.8 0.5 0.6 0.8 0.5
          0.7 0.8 0.5 0.8 0.8 0.5
          0.9 0.8 0.5 1 0.8 0.5
          0 0.9 0.5 0.1 0.9 0.5
          0.2 0.9 0.5 0.3 0.9 0.5
          0.4 0.9 0.5 0.5 0.9 0.5
          0.6 0.9 0.5 0.7 0.9 0.5
          0.8 0.9 0.5 0.9 0.9 0.5
          1 0.9 0.5 0 1 0.5
          0.1 1 0.5 0.2 1 0.5
          0.3 1 0.5 0.4 1 0.5
          0.5 1 0.5 0.6 1 0.5
          0.7 1 0.5 0.8 1 0.5
          0.9 1 0.5 1 1 0.5
          0 0 0.6 0.1 0 0.6
          0.2 0 0.6 0.3 0 0.6
          0.4 0 0.6 0.5 0 0.6
          0.6 0 0.6 0.7 0 0.6
          0.8 0 0.6 0.9 0 0.6
          1 0 0.6 0 0.1 0.6
          0.1 0.1 0.6 0.2 0.1 0.6
          0.3 0.1 0.6 0.4 0.1 0.6
          0.5 0.1 0.6 0.6 0.1 0.6
          0.7 0.1 0.6 0.8 0.1 0.6
          0.9 0.1 0.6 1 0.1 0.6
          0 0.2 0.6 0.1 0.2 0.6
          0.2 0.2 0.6 0.3 0.2 0.6
          0.4 0.2 0.6 0.5 0.2 0.6
          0.6 0.2 0.6 0.7 0.2 0.6
          0.8 0.2 0.6 0.9 0.2 0.6
          1 0.2 0.6 0 0.3 0.6
          0.1 0.3 0.6 0.2 0.3 0.6
          0.3 0.3 0.6 0.4 0.3 0.6
          0.5 0.3 0.6 0.6 0.3 0.6
          0.7 0.3 0.6 0.8 0.3 0.6
          0.9 0.3 0.6 1 0.3 0.6
          0 0.4 0.6 0.1 0.4 0.6
          0.2 0.4 0.6 0.3 0.4 0.6
          0.4 0.4 0.6 0.5 0.4 0.6
          0.6 0.4 0.6 0.7 0.4 0.6
          0.8 0.4 0.6 0.9 0.4 0.6
          1 0.4 0.6 0 0.5 0.6
          0.1 0.5 0.6 0.2 0.5 0.6
          0.3 0.5 0.6 0.4 0.5 0.6
          0.5 0.5 0.6 0.6 0.5 0.6
          0.7 0.5 0.6 0.8 0.5 0.6
          0.9 0.5 0.6 1 0.5 0.6
          0 0.6 0.6 0.1 0.6 0.6
          0.2 0.6 0.6 0.3 0.6 0.6
          0.4 0.6 0.6 0.5 0.6 0.6
          0.6 0.6 0.6 0.7 0.6 0.6
          0.8 0.6 0.6 0.9 0.6 0.6
          1 0.6 0.6 0 0.7 0.6
          0.1 0.7 0.6 0.2 0.7 0.6
          0.3 0.7 0.6 0.4 0.7 0.6
          0.5 0.7 0.6 0.6 0.7 0.6
          0.7 0.7 0.6 0.8 0.7 0.6
          0.9 0.7 0.6 1 0.7 0.6
          0 0.8 0.6 0.1 0.8 0.6
          0.2 0.8 0.6 0.3 0.8 0.6
          0.4 0.8 0.6 0.5 0.8 0.6
          0.6 0.8 0.6 0.7 0.8 0.6
          0.8 0.8 0.6 0.9 0.8 0.6
          1 0.8 0.6 0 0.9 0.6
          0.1 0.9 0.6 0.2 0.9 0.6
          0.3 0.9 0.6 0.4 0.9 0.6
          0.5 0.9 0.6 0.6 0.9 0.6
          0.7 0.9 0.6 0.8 0.9 0.6
          0.9 0.9 0.6 1 0.9 0.6
          0 1 0.6 0.1 1 0.6
          0.2 1 0.6 0.3 1 0.6
          0.4 1 0.6 0.5 1 0.6
          0.6 1 0.6 0.7 1 0.6
          0.8 1 0.6 0.9 1 0.6
          1 1 0.6 0 0 0.7
          0.1 0 0.7 0.2 0 0.7
          0.3 0 0.7 0.4 0 0.7
          0.5 0 0.7 0.6 0 0.7
          0.7 0 0.7 0.8 0 0.7
          0.9 0 0.7 1 0 0.7
          0 0.1 0.7 0.1 0.1 0.7
          0.2 0.1 0.7 0.3 0.1 0.7
          0.4 0.1 0.7 0.5 0.1 0.7
          0.6 0.1 0.7 0.7 0.1 0.7
          0.8 0.1 0.7 0.9 0.1 0.7
          1 0.1 0.7 0 0.2 0.7
          0.1 0.2 0.7 0.2 0.2 0.7
          0.3 0.2 0.7 0.4 0.2 0.7
          0.5 0.2 0.7 0.6 0.2 0.7
          0.7 0.2 0.7 0.8 0.2 0.7
          0.9 0.2 0.7 1 0.2 0.7
          0 0.3 0.7 0.1 0.3 0.7
          0.2 0.3 0.7 0.3 0.3 0.7
          0.4 0.3 0.7 0.5 0.3 0.7
          0.6 0.3 0.7 0.7 0.3 0.7
          0.8 0.3 0.7 0.9 0.3 0.7
          1 0.3 0.7 0 0.4 0.7
          0.1 0.4 0.7 0.2 0.4 0.7
          0.3 0.4 0.7 0.4 0.4 0.7
          0.5 0.4 0.7 0.6 0.4 0.7
          0.7 0.4 0.7 0.8 0.4 0.7
          0.9 0.4 0.7 1 0.4 0.7
          0 0.5 0.7 0.1 0.5 0.7
          0.2 0.5 0.7 0.3 0.5 0.7
          0.4 0.5 0.7 0.5 0.5 0.7
          0.6 0.5 0.7 0.7 0.5 0.7
          0.8 0.5 0.7 0.9 0.5 0.7
          1 0.5 0.7 0 0.6 0.7
          0.1 0.6 0.7 0.2 0.6 0.7
          0.3 0.6 0.7 0.4 0.6 0.7
          0.5 0.6 0.7 0.6 0.6 0.7
          0.7 0.6 0.7 0.8 0.6 0.7
          0.9 0.6 0.7 1 0.6 0.7
          0 0.7 0.7 0.1 0.7 0.7
          0.2 0.7 0.7 0.3 0.7 0.7
          0.4 0.7 0.7 0.5 0.7 0.7
          0.6 0.7 0.7 0.7 0.7 0.7
          0.8 0.7 0.7 0.9 0.7 0.7
          1 0.7 0.7 0 0.8 0.7
          0.1 0.8 0.7 0.2 0.8 0.7
          0.3 0.8 0.7 0.4 0.8 0.7
          0.5 0.8 0.7 0.6 0.8 0.7
          0.7 0.8 0.7 0.8 0.8 0.7
          0.9 0.8 0.7 1 0.8 0.7
          0 0.9 0.7 0.1 0.9 0.7
          0.2 0.9 0.7 0.3 0.9 0.7
          0.4 0.9 0.7 0.5 0.9 0.7
          0.6 0.9 0.7 0.7 0.9 0.7
          0.8 0.9 0.7 0.9 0.9 0.7
          1 0.9 0.7 0 1 0.7
          0.1 1 0.7 0.2 1 0.7
          0.3 1 0.7 0.4 1 0.7
          0.5 1 0.7 0.6 1 0.7
          0.7 1 0.7 0.8 1 0.7
          0.9 1 0.7 1 1 0.7
          0 0 0.8 0.1 0 0.8
          0.2 0 0.8 0.3 0 0.8
          0.4 0 0.8 0.5 0 0.8
          0.6 0 0.8 0.7 0 0.8
          0.8 0 0.8 0.9 0 0.8
          1 0 0.8 0 0.1 0.8
          0.1 0.1 0.8 0.2 0.1 0.8
          0.3 0.1 0.8 0.4 0.1 0.8
          0.5 0.1 0.8 0.6 0.1 0.8
          0.7 0.1 0.8 0.8 0.1 0.8
          0.9 0.1 0.8 1 0.1 0.8
          0 0.2 0.8 0.1 0.2 0.8
          0.2 0.2 0.8 0.3 0.2 0.8
          0.4 0.2 0.8 0.5 0.2 0.8
          0.6 0.2 0.8 0.7 0.2 0.8
          0.8 0.2 0.8 0.9 0.2 0.8
          1 0.2 0.8 0 0.3 0.8
          0.1 0.3 0.8 0.2 0.3 0.8
          0.3 0.3 0.8 0.4 0.3 0.8
          0.5 0.3 0.8 0.6 0.3 0.8
          0.7 0.3 0.8 0.8 0.3 0.8
          0.9 0.3 0.8 1 0.3 0.8
          0 0.4 0.8 0.1 0.4 0.8
          0.2 0.4 0.8 0.3 0.4 0.8
          0.4 0.4 0.8 0.5 0.4 0.8
          0.6 0.4 0.8 0.7 0.4 0.8
          0.8 0.4 0.8 0.9 0.4 0.8
          1 0.4 0.8 0 0.5 0.8
          0.1 0.5 0.8 0.2 0.5 0.8
          0.3 0.5 0.8 0.4 0.5 0.8
          0.5 0.5 0.8 0.6 0.5 0.8
          0.7 0.5 0.8 0.8 0.5 0.8
          0.9 0.5 0.8 1 0.5 0.8
          0 0.6 0.8 0.1 0.6 0.8
          0.2 0.6 0.8 0.3 0.6 0.8
          0.4 0.6 0.8 0.5 0.6 0.8
          0.6 0.6 0.8 0.7 0.6 0.8
          0.8 0.6 0.8 0.9 0.6 0.8
          1 0.6 0.8 0 0.7 0.8
          0.1 0.7 0.8 0.2 0.7 0.8
          0.3 0.7 0.8 0.4 0.7 0.8
          0.5 0.7 0.8 0.6 0.7 0.8
          0.7 0.7 0.8 0.8 0.7 0.8
          0.9 0.7 0.8 1 0.7 0.8
          0 0.8 0.8 0.1 0.8 0.8
          0.2 0.8 0.8 0.3 0.8 0.8
          0.4 0.8 0.8 0.5 0.8 0.8
          0.6 0.8 0.8 0.7 0.8 0.8
          0.8 0.8 0.8 0.9 0.8 0.8
          1 0.8 0.8 0 0.9 0.8
          0.1 0.9 0.8 0.2 0.9 0.8
          0.3 0.9 0.8 0.4 0.9 0.8
          0.5 0.9 0.8 0.6 0.9 0.8
          0.7 0.9 0.8 0.8 0.9 0.8
          0.9 0.9 0.8 1 0.9 0.8
          0 1 0.8 0.1 1 0.8
          0.2 1 0.8 0.3 1 0.8
          0.4 1 0.8 0.5 1 0.8
          0.6 1 0.8 0.7 1 0.8
          0.8 1 0.8 0.9 1 0.8
          1 1 0.8 0 0 0.9
          0.1 0 0.9 0.2 0 0.9
          0.3 0 0.9 0.4 0 0.9
          0.5 0 0.9 0.6 0 0.9
          0.7 0 0.9 0.8 0 0.9
          0.9 0 0.9 1 0 0.9
          0 0.1 0.9 0.1 0.1 0.9
          0.2 0.1 0.9 0.3 0.1 0.9
          0.4 0.1 0.9 0.5 0.1 0.9
          0.6 0.1 0.9 0.7 0.1 0.9
          0.8 0.1 0.9 0.9 0.1 0.9
          1 0.1 0.9 0 0.2 0.9
          0.1 0.2 0.9 0.2 0.2 0.9
          0.3 0.2 0.9 0.4 0.2 0.9
          0.5 0.2 0.9 0.6 0.2 0.9
          0.7 0.2 0.9 0.8 0.2 0.9
          0.9 0.2 0.9 1 0.2 0.9
          0 0.3 0.9 0.1 0.3 0.9
          0.2 0.3 0.9 0.3 0.3 0.9
          0.4 0.3 0.9 0.5 0.3 0.9
          0.6 0.3 0.9 0.7 0.3 0.9
          0.8 0.3 0.9 0.9 0.3 0.9
          1 0.3 0.9 0 0.4 0.9
          0.1 0.4 0.9 0.2 0.4 0.9
          0.3 0.4 0.9 0.4 0.4 0.9
          0.5 0.4 0.9 0.6 0.4 0.9
          0.7 0.4 0.9 0.8 0.4 0.9
          0.9 0.4 0.9 1 0.4 0.9
          0 0.5 0.9 0.1 0.5 0.9
          0.2 0.5 0.9 0.3 0.5 0.9
          0.4 0.5 0.9 0.5 0.5 0.9
          0.6 0.5 0.9 0.7 0.5 0.9
          0.8 0.5 0.9 0.9 0.5 0.9
          1 0.5 0.9 0 0.6 0.9
          0.1 0.6 0.9 0.2 0.6 0.9
          0.3 0.6 0.9 0.4 0.6 0.9
          0.5 0.6 0.9 0.6 0.6 0.9
          0.7 0.6 0.9 0.8 0.6 0.9
          0.9 0.6 0.9 1 0.6 0.9
          0 0.7 0.9 0.1 0.7 0.9
          0.2 0.7 0.9 0.3 0.7 0.9
          0.4 0.7 0.9 0.5 0.7 0.9
          0.6 0.7 0.9 0.7 0.7 0.9
          0.8 0.7 0.9 0.9 0.7 0.9
          1 0.7 0.9 0 0.8 0.9
          0.1 0.8 0.9 0.2 0.8 0.9
          0.3 0.8 0.9 0.4 0.8 0.9
          0.5 0.8 0.9 0.6 0.8 0.9
          0.7 0.8 0.9 0.8 0.8 0.9
          0.9 0.8 0.9 1 0.8 0.9
          0 0.9 0.9 0.1 0.9 0.9
          0.2 0.9 0.9 0.3 0.9 0.9
          0.4 0.9 0.9 0.5 0.9 0.9
          0.6 0.9 0.9 0.7 0.9 0.9
          0.8 0.9 0.9 0.9 0.9 0.9
          1 0.9 0.9 0 1 0.9
          0.1 1 0.9 0.2 1 0.9
          0.3 1 0.9 0.4 1 0.9
          0.5 1 0.9 0.6 1 0.9
          0.7 1 0.9 0.8 1 0.9
          0.9 1 0.9 1 1 0.9
          0 0 1 0.1 0 1
          0.2 0 1 0.3 0 1
          0.4 0 1 0.5 0 1
          0.6 0 1 0.7 0 1
          0.8 0 1 0.9 0 1
          1 0 1 0 0.1 1
          0.1 0.1 1 0.2 0.1 1
          0.3 0.1 1 0.4 0.1 1
          0.5 0.1 1 0.6 0.1 1
          0.7 0.1 1 0.8 0.1 1
          0.9 0.1 1 1 0.1 1
          0 0.2 1 0.1 0.2 1
          0.2 0.2 1 0.3 0.2 1
          0.4 0.2 1 0.5 0.2 1
          0.6 0.2 1 0.7 0.2 1
          0.8 0.2 1 0.9 0.2 1
          1 0.2 1 0 0.3 1
          0.1 0.3 1 0.2 0.3 1
          0.3 0.3 1 0.4 0.3 1
          0.5 0.3 1 0.6 0.3 1
          0.7 0.3 1 0.8 0.3 1
          0.9 0.3 1 1 0.3 1
          0 0.4 1 0.1 0.4 1
          0.2 0.4 1 0.3 0.4 1
          0.4 0.4 1 0.5 0.4 1
          0.6 0.4 1 0.7 0.4 1
          0.8 0.4 1 0.9 0.4 1
          1 0.4 1 0 0.5 1
          0.1 0.5 1 0.2 0.5 1
          0.3 0.5 1 0.4 0.5 1
          0.5 0.5 1 0.6 0.5 1
          0.7 0.5 1 0.8 0.5 1
          0.9 0.5 1 1 0.5 1
          0 0.6 1 0.1 0.6 1
          0.2 0.6 1 0.3 0.6 1
          0.4 0.6 1 0.5 0.6 1
          0.6 0.6 1 0.7 0.6 1
          0.8 0.6 1 0.9 0.6 1
          1 0.6 1 0 0.7 1
          0.1 0.7 1 0.2 0.7 1
          0.3 0.7 1 0.4 0.7 1
          0.5 0.7 1 0.6 0.7 1
          0.7 0.7 1 0.8 0.7 1
          0.9 0.7 1 1 0.7 1
          0 0.8 1 0.1 0.8 1
          0.2 0.8 1 0.3 0.8 1
          0.4 0.8 1 0.5 0.8 1
          0.6 0.8 1 0.7 0.8 1
          0.8 0.8 1 0.9 0.8 1
          1 0.8 1 0 0.9 1
          0.1 0.9 1 0.2 0.9 1
          0.3 0.9 1 0.4 0.9 1
          0.5 0.9 1 0.6 0.9 1
          0.7 0.9 1 0.8 0.9 1
          0.9 0.9 1 1 0.9 1
          0 1 1 0.1 1 1
          0.2 1 1 0.3 1 1
          0.4 1 1 0.5 1 1
          0.6 1 1 0.7 1 1
          0.8 1 1 0.9 1 1
          1 1 1
        </DataArray>
      </Points>
      <Cells>
        <DataArray type="Int64" Name="connectivity" format="ascii" RangeMin="0" RangeMax="1330">
          0 1 12 11 121 122
          133 132 1 2 13 12
          122 123 134 133 2 3
          14 13 123 124 135 134
          3 4 15 14 124 125
          136 135 4 5 16 15
          125 126 137 136 5 6
          17 16 126 127 138 137
          6 7 18 17 127 128
          139 138 7 8 19 18
          128 129 140 139 8 9
          20 19 129 130 141 140
          9 10 21 20 130 131
          142 141 11 12 23 22
          132 133 144 143 12 13
          24 23 133 134 145 144
          13 14 25 24 134 135
          146 145 14 15 26 25
          135 136 147 146 15 16
          27 26 136 137 148 147
          16 17 28 27 137 138
          149 148 17 18 29 28
          138 139 150 149 18 19
          30 29 139 140 151 150
          19 20 31 30 140 141
          152 151 20 21 32 31
          141 142 153 152 22 23
          34 33 143 144 155 154
          23 24 35 34 144 145
          156 155 24 25 36 35
          145 146 157 156 25 26
          37 36 146 147 158 157
          26 27 38 37 147 148
          159 158 27 28 39 38
          148 149 160 159 28 29
          40 39 149 150 161 160
          29 30 41 40 150 151
          162 161 30 31 42 41
          151 152 163 162 31 32
          43 42 152 153 164 163
          33 34 45 44 154 155
          166 165 34 35 46 45
          155 156 167 166 35 36
          47 46 156 157 168 167
          36 37 48 47 157 158
          169 168 37 38 49 48
          158 159 170 169 38 39
          50 49 159 160 171 170
          39 40 51 50 160 161
          172 171 40 41 52 51
          161 162 173 172 41 42
          53 52 162 163 174 173
          42 43 54 53 163 164
          175 174 44 45 56 55
          165 166 177 176 45 46
          57 56 166 167 178 177
          46 47 58 57 167 168
          179 178 47 48 59 58
          168 169 180 179 48 49
          60 59 169 170 181 180
          49 50 61 60 170 171
          182 181 50 51 62 61
          171 172 183 182 51 52
          63 62 172 173 184 183
          52 53 64 63 173 174
          185 184 53 54 65 64
          174 175 186 185 55 56
          67 66 176 177 188 187
          56 57 68 67 177 178
          189 188 57 58 69 68
          178 179 190 189 58 59
          70 69 179 180 191 190
          59 60 71 70 180 181
          192 191 60 61 72 71
          181 182 193 192 61 62
          73 72 182 183 194 193
          62 63 74 73 183 184
          195 194 63 64 75 74
          184 185 196 195 64 65
          76 75 185 186 197 196
          66 67 78 77 187 188
          199 198 67 68 79 78
          188 189 200 199 68 69
          80 79 189 190 201 200
          69 70 81 80 190 191
          202 201 70 71 82 81
          191 192 203 202 71 72
          83 82 192 193 204 203
          72 73 84 83 193 194
          205 204 73 74 85 84
          194 195 206 205 74 75
          86 85 195 196 207 206
          75 76 87 86 196 197
          208 207 77 78 89 88
          198 199 210 209 78 79
          90 89 199 200 211 210
          79 80 91 90 200 201
          212 211 80 81 92 91
          201 202 213 212 81 82
          93 92 202 203 214 213
          82 83 94 93 203 204
          215 214 83 84 95 94
          204 205 216 215 84 85
          96 95 205 206 217 216
          85 86 97 96 206 207
          218 217 86 87 98 97
          207 208 219 218 88 89
          100 99 209 210 221 220
          89 90 101 100 210 211
          222 221 90 91 102 101
          211 212 223 222 91 92
          103 102 212 213 224 223
          92 93 104 103 213 214
          225 224 93 94 105 104
          214 215 226 225 94 95
          106 105 215 216 227 226
          95 96 107 106 216 217
          228 227 96 97 108 107
          217 218 229 228 97 98
          109 108 218 219 230 229
          99 100 111 110 220 221
          232 231 100 101 112 111
          221 222 233 232 101 102
          113 112 222 223 234 233
          102 103 114 113 223 224
          235 234 103 104 115 114
          224 225 236 235 104 105
          116 115 225 226 237 236
          105 106 117 116 226 227
          238 237 106 107 118 117
          227 228 239 238 107 108
          119 118 228 229 240 239
          108 109 120 119 229 230
          241 240 121 122 133 132
          242 243 254 253 122 123
          134 133 243 244 255 254
          123 124 135 134 244 245
          256 255 124 125 136 135
          245 246 257 256 125 126
          137 136 246 247 258 257
          126 127 138 137 247 248
          259 258 127 128 139 138