<?xml version="1.0"?>
<VTKFile type="UnstructuredGrid" version="0.1" byte_order="LittleEndian" header_type="UInt32">
  <UnstructuredGrid>
    <FieldData>
      <DataArray type="Int8" Name="OGS_VERSION" NumberOfTuples="41" format="ascii" RangeMin="45" RangeMax="121">
        54 46 50 46 48 45
        49 57 48 45 103 49
        56 98 99 101 100 55
        97 50 46 100 105 114
        116 121 46 50 48 49
        57 48 53 50 49 48
        56 50 51 48 49
      </DataArray>
    </FieldData>
    <Piece NumberOfPoints="44" NumberOfCells="10">
      <PointData>
        <DataArray type="Float64" Name="pressure" format="ascii" RangeMin="0" RangeMax="1000000">
          100000 0 0 100000 100000 0
          0 100000 200000 200000 200000 200000
          300000 300000 300000 300000 400000 400000
          400000 400000 500000 500000 500000 500000
          600000 600000 600000 600000 700000 700000
          700000 700000 800000 800000 800000 800000
          900000 900000 900000 900000 1000000 1000000
          1000000 1000000
        </DataArray>
        <DataArray type="Float64" Name="q" NumberOfComponents="3" format="ascii" RangeMin="1e-08" RangeMax="1e-08">
          -1e-08 -7.425951087e-24 -6.9662118496e-24 -1e-08 -5.9354148985e-25 -7.272283463e-25
          -1e-08 -5.9354148985e-25 4.2445922859e-25 -1e-08 -1.0099440854e-23 1.9111325114e-24
          -1e-08 1.068674011e-24 -3.5763626588e-24 -1e-08 1.6546799946e-25 -3.43332488e-25
          -1e-08 1.6546799946e-25 -1.0082596194e-24 -1e-08 1.785033435e-24 3.4843669959e-24
          -1e-08 8.7036889661e-24 1.9782076883e-23 -1e-08 9.4200483901e-24 -4.9442581497e-24
          -1e-08 -1.3742464921e-23 1.4102633784e-23 -1e-08 -1.393441285e-23 -9.7153938958e-24
          -1e-08 -1.9462614205e-24 3.3304602948e-24 -1e-08 -1.9462614205e-24 1.7835815462e-23
          -1e-08 4.922520305e-24 6.8608251222e-24 -1e-08 4.922520305e-24 2.3182794996e-23
          -1e-08 -8.1678755576e-24 -9.3641048045e-24 -1e-08 9.5284902511e-25 -1.3591653431e-38
          -1e-08 4.096120046e-25 -9.3641048045e-24 -1e-08 -5.8456748822e-24 -9.9261673506e-24
          -1e-08 -2.144730703e-23 1.373329952e-24 -1e-08 -1.7392530708e-23 4.238767648e-24
          -1e-08 1.2104940071e-23 -3.5897537233e-24 -1e-08 1.6646476836e-23 1.2835080736e-23
          -1e-08 1.3497095548e-23 -1.7030372695e-23 -1e-08 4.8252462517e-23 -2.6188748329e-23
          -1e-08 -5.2926349221e-24 3.0276911771e-24 -1e-08 -1.2123765596e-23 -3.422299887e-23
          -1e-08 -2.3223358366e-23 1.7517133138e-23 -1e-08 -3.5579635262e-23 -2.746659904e-24
          -1e-08 2.4489350707e-24 -3.0989578523e-23 -1e-08 -2.2455469608e-25 3.0103009014e-23
          -1e-08 4.0818705926e-23 1.0250674313e-23 -1e-08 -3.3898491908e-24 -3.5184870481e-23
          -1e-08 -3.8337164088e-23 2.8567425581e-23 -1e-08 -2.1528433771e-23 -9.6016603883e-24
          -1e-08 6.1365090948e-24 -5.0279850678e-23 -1e-08 8.8990822056e-24 3.2200654994e-23
          -1e-08 -5.4281062742e-24 -5.0279850678e-23 -1e-08 2.2636645657e-23 1.2348320292e-23
          -1e-08 -2.0572917042e-25 1.1936861952e-23 -1e-08 7.6779171659e-25 1.2980278493e-24
          -1e-08 2.865437696e-24 1.8079195684e-23 -1e-08 -1.0693959067e-23 -2.1625473718e-23
        </DataArray>
      </PointData>
      <CellData>
        <DataArray type="Int32" Name="MaterialIDs" format="ascii" RangeMin="0" RangeMax="0">
          0 0 0 0 0 0
          0 0 0 0
        </DataArray>
      </CellData>
      <Points>
        <DataArray type="Float64" Name="Points" NumberOfComponents="3" format="ascii" RangeMin="0" RangeMax="100.99504938">
          10 10 10 0 10 10
          0 0 10 10 0 10
          10 10 0 0 10 0
          0 0 0 10 0 0
          20 10 10 20 0 10
          20 10 0 20 0 0
          30 10 10 30 0 10
          30 10 0 30 0 0
          40 10 10 40 0 10
          40 10 0 40 0 0
          50 10 10 50 0 10
          50 10 0 50 0 0
          60 10 10 60 0 10
          60 10 0 60 0 0
          70 10 10 70 0 10
          70 10 0 70 0 0
          80 10 10 80 0 10
          80 10 0 80 0 0
          90 10 10 90 0 10
          90 10 0 90 0 0
          100 10 10 100 0 10
          100 10 0 100 0 0
        </DataArray>
      </Points>
      <Cells>
        <DataArray type="Int64" Name="connectivity" format="ascii" RangeMin="0" RangeMax="43">
          4 5 6 7 0 1
          2 3 10 4 7 11
          8 0 3 9 14 10
          11 15 12 8 9 13
          18 14 15 19 16 12
          13 17 22 18 19 23
          20 16 17 21 26 22
          23 27 24 20 21 25
          30 26 27 31 28 24
          25 29 34 30 31 35
          32 28 29 33 38 34
          35 39 36 32 33 37
          42 38 39 43 40 36
          37 41
        </DataArray>
        <DataArray type="Int64" Name="offsets" format="ascii" RangeMin="8" RangeMax="80">
          8 16 24 32 40 48
          56 64 72 80
        </DataArray>
        <DataArray type="UInt8" Name="types" format="ascii" RangeMin="12" RangeMax="12">
          12 12 12 12 12 12
          12 12 12 12
        </DataArray>
      </Cells>
    </Piece>
  </UnstructuredGrid>
</VTKFile>
