<?xml version="1.0"?>
<!-- Time step: 1388 | Time: 6.120000000000e+04 -->
<VTKFile type="UnstructuredGrid" version="0.1" byte_order="LittleEndian">
  <UnstructuredGrid>
    <Piece NumberOfPoints="201" NumberOfCells="200">
      <Points>
        <DataArray type="Float64" NumberOfComponents="3" format="ascii">
          0.000000000000e+00 0.000000000000e+00 0.000000000000e+00
          0.000000000000e+00 0.000000000000e+00 1.000000000000e-02
          0.000000000000e+00 0.000000000000e+00 2.000000000000e-02
          0.000000000000e+00 0.000000000000e+00 3.000000000000e-02
          0.000000000000e+00 0.000000000000e+00 4.000000000000e-02
          0.000000000000e+00 0.000000000000e+00 5.000000000000e-02
          0.000000000000e+00 0.000000000000e+00 6.000000000000e-02
          0.000000000000e+00 0.000000000000e+00 7.000000000000e-02
          0.000000000000e+00 0.000000000000e+00 8.000000000000e-02
          0.000000000000e+00 0.000000000000e+00 9.000000000000e-02
          0.000000000000e+00 0.000000000000e+00 1.000000000000e-01
          0.000000000000e+00 0.000000000000e+00 1.100000000000e-01
          0.000000000000e+00 0.000000000000e+00 1.200000000000e-01
          0.000000000000e+00 0.000000000000e+00 1.300000000000e-01
          0.000000000000e+00 0.000000000000e+00 1.400000000000e-01
          0.000000000000e+00 0.000000000000e+00 1.500000000000e-01
          0.000000000000e+00 0.000000000000e+00 1.600000000000e-01
          0.000000000000e+00 0.000000000000e+00 1.700000000000e-01
          0.000000000000e+00 0.000000000000e+00 1.800000000000e-01
          0.000000000000e+00 0.000000000000e+00 1.900000000000e-01
          0.000000000000e+00 0.000000000000e+00 2.000000000000e-01
          0.000000000000e+00 0.000000000000e+00 2.100000000000e-01
          0.000000000000e+00 0.000000000000e+00 2.200000000000e-01
          0.000000000000e+00 0.000000000000e+00 2.300000000000e-01
          0.000000000000e+00 0.000000000000e+00 2.400000000000e-01
          0.000000000000e+00 0.000000000000e+00 2.500000000000e-01
          0.000000000000e+00 0.000000000000e+00 2.600000000000e-01
          0.000000000000e+00 0.000000000000e+00 2.700000000000e-01
          0.000000000000e+00 0.000000000000e+00 2.800000000000e-01
          0.000000000000e+00 0.000000000000e+00 2.900000000000e-01
          0.000000000000e+00 0.000000000000e+00 3.000000000000e-01
          0.000000000000e+00 0.000000000000e+00 3.100000000000e-01
          0.000000000000e+00 0.000000000000e+00 3.200000000000e-01
          0.000000000000e+00 0.000000000000e+00 3.300000000000e-01
          0.000000000000e+00 0.000000000000e+00 3.400000000000e-01
          0.000000000000e+00 0.000000000000e+00 3.500000000000e-01
          0.000000000000e+00 0.000000000000e+00 3.600000000000e-01
          0.000000000000e+00 0.000000000000e+00 3.700000000000e-01
          0.000000000000e+00 0.000000000000e+00 3.800000000000e-01
          0.000000000000e+00 0.000000000000e+00 3.900000000000e-01
          0.000000000000e+00 0.000000000000e+00 4.000000000000e-01
          0.000000000000e+00 0.000000000000e+00 4.100000000000e-01
          0.000000000000e+00 0.000000000000e+00 4.200000000000e-01
          0.000000000000e+00 0.000000000000e+00 4.300000000000e-01
          0.000000000000e+00 0.000000000000e+00 4.400000000000e-01
          0.000000000000e+00 0.000000000000e+00 4.500000000000e-01
          0.000000000000e+00 0.000000000000e+00 4.600000000000e-01
          0.000000000000e+00 0.000000000000e+00 4.700000000000e-01
          0.000000000000e+00 0.000000000000e+00 4.800000000000e-01
          0.000000000000e+00 0.000000000000e+00 4.900000000000e-01
          0.000000000000e+00 0.000000000000e+00 5.000000000000e-01
          0.000000000000e+00 0.000000000000e+00 5.100000000000e-01
          0.000000000000e+00 0.000000000000e+00 5.200000000000e-01
          0.000000000000e+00 0.000000000000e+00 5.300000000000e-01
          0.000000000000e+00 0.000000000000e+00 5.400000000000e-01
          0.000000000000e+00 0.000000000000e+00 5.500000000000e-01
          0.000000000000e+00 0.000000000000e+00 5.600000000000e-01
          0.000000000000e+00 0.000000000000e+00 5.700000000000e-01
          0.000000000000e+00 0.000000000000e+00 5.800000000000e-01
          0.000000000000e+00 0.000000000000e+00 5.900000000000e-01
          0.000000000000e+00 0.000000000000e+00 6.000000000000e-01
          0.000000000000e+00 0.000000000000e+00 6.100000000000e-01
          0.000000000000e+00 0.000000000000e+00 6.200000000000e-01
          0.000000000000e+00 0.000000000000e+00 6.300000000000e-01
          0.000000000000e+00 0.000000000000e+00 6.400000000000e-01
          0.000000000000e+00 0.000000000000e+00 6.500000000000e-01
          0.000000000000e+00 0.000000000000e+00 6.600000000000e-01
          0.000000000000e+00 0.000000000000e+00 6.700000000000e-01
          0.000000000000e+00 0.000000000000e+00 6.800000000000e-01
          0.000000000000e+00 0.000000000000e+00 6.900000000000e-01
          0.000000000000e+00 0.000000000000e+00 7.000000000000e-01
          0.000000000000e+00 0.000000000000e+00 7.100000000000e-01
          0.000000000000e+00 0.000000000000e+00 7.200000000000e-01
          0.000000000000e+00 0.000000000000e+00 7.300000000000e-01
          0.000000000000e+00 0.000000000000e+00 7.400000000000e-01
          0.000000000000e+00 0.000000000000e+00 7.500000000000e-01
          0.000000000000e+00 0.000000000000e+00 7.600000000000e-01
          0.000000000000e+00 0.000000000000e+00 7.700000000000e-01
          0.000000000000e+00 0.000000000000e+00 7.800000000000e-01
          0.000000000000e+00 0.000000000000e+00 7.900000000000e-01
          0.000000000000e+00 0.000000000000e+00 8.000000000000e-01
          0.000000000000e+00 0.000000000000e+00 8.100000000000e-01
          0.000000000000e+00 0.000000000000e+00 8.200000000000e-01
          0.000000000000e+00 0.000000000000e+00 8.300000000000e-01
          0.000000000000e+00 0.000000000000e+00 8.400000000000e-01
          0.000000000000e+00 0.000000000000e+00 8.500000000000e-01
          0.000000000000e+00 0.000000000000e+00 8.600000000000e-01
          0.000000000000e+00 0.000000000000e+00 8.700000000000e-01
          0.000000000000e+00 0.000000000000e+00 8.800000000000e-01
          0.000000000000e+00 0.000000000000e+00 8.900000000000e-01
          0.000000000000e+00 0.000000000000e+00 9.000000000000e-01
          0.000000000000e+00 0.000000000000e+00 9.100000000000e-01
          0.000000000000e+00 0.000000000000e+00 9.200000000000e-01
          0.000000000000e+00 0.000000000000e+00 9.300000000000e-01
          0.000000000000e+00 0.000000000000e+00 9.400000000000e-01
          0.000000000000e+00 0.000000000000e+00 9.500000000000e-01
          0.000000000000e+00 0.000000000000e+00 9.600000000000e-01
          0.000000000000e+00 0.000000000000e+00 9.700000000000e-01
          0.000000000000e+00 0.000000000000e+00 9.800000000000e-01
          0.000000000000e+00 0.000000000000e+00 9.900000000000e-01
          0.000000000000e+00 0.000000000000e+00 1.000000000000e+00
          0.000000000000e+00 0.000000000000e+00 1.010000000000e+00
          0.000000000000e+00 0.000000000000e+00 1.020000000000e+00
          0.000000000000e+00 0.000000000000e+00 1.030000000000e+00
          0.000000000000e+00 0.000000000000e+00 1.040000000000e+00
          0.000000000000e+00 0.000000000000e+00 1.050000000000e+00
          0.000000000000e+00 0.000000000000e+00 1.060000000000e+00
          0.000000000000e+00 0.000000000000e+00 1.070000000000e+00
          0.000000000000e+00 0.000000000000e+00 1.080000000000e+00
          0.000000000000e+00 0.000000000000e+00 1.090000000000e+00
          0.000000000000e+00 0.000000000000e+00 1.100000000000e+00
          0.000000000000e+00 0.000000000000e+00 1.110000000000e+00
          0.000000000000e+00 0.000000000000e+00 1.120000000000e+00
          0.000000000000e+00 0.000000000000e+00 1.130000000000e+00
          0.000000000000e+00 0.000000000000e+00 1.140000000000e+00
          0.000000000000e+00 0.000000000000e+00 1.150000000000e+00
          0.000000000000e+00 0.000000000000e+00 1.160000000000e+00
          0.000000000000e+00 0.000000000000e+00 1.170000000000e+00
          0.000000000000e+00 0.000000000000e+00 1.180000000000e+00
          0.000000000000e+00 0.000000000000e+00 1.190000000000e+00
          0.000000000000e+00 0.000000000000e+00 1.200000000000e+00
          0.000000000000e+00 0.000000000000e+00 1.210000000000e+00
          0.000000000000e+00 0.000000000000e+00 1.220000000000e+00
          0.000000000000e+00 0.000000000000e+00 1.230000000000e+00
          0.000000000000e+00 0.000000000000e+00 1.240000000000e+00
          0.000000000000e+00 0.000000000000e+00 1.250000000000e+00
          0.000000000000e+00 0.000000000000e+00 1.260000000000e+00
          0.000000000000e+00 0.000000000000e+00 1.270000000000e+00
          0.000000000000e+00 0.000000000000e+00 1.280000000000e+00
          0.000000000000e+00 0.000000000000e+00 1.290000000000e+00
          0.000000000000e+00 0.000000000000e+00 1.300000000000e+00
          0.000000000000e+00 0.000000000000e+00 1.310000000000e+00
          0.000000000000e+00 0.000000000000e+00 1.320000000000e+00
          0.000000000000e+00 0.000000000000e+00 1.330000000000e+00
          0.000000000000e+00 0.000000000000e+00 1.340000000000e+00
          0.000000000000e+00 0.000000000000e+00 1.350000000000e+00
          0.000000000000e+00 0.000000000000e+00 1.360000000000e+00
          0.000000000000e+00 0.000000000000e+00 1.370000000000e+00
          0.000000000000e+00 0.000000000000e+00 1.380000000000e+00
          0.000000000000e+00 0.000000000000e+00 1.390000000000e+00
          0.000000000000e+00 0.000000000000e+00 1.400000000000e+00
          0.000000000000e+00 0.000000000000e+00 1.410000000000e+00
          0.000000000000e+00 0.000000000000e+00 1.420000000000e+00
          0.000000000000e+00 0.000000000000e+00 1.430000000000e+00
          0.000000000000e+00 0.000000000000e+00 1.440000000000e+00
          0.000000000000e+00 0.000000000000e+00 1.450000000000e+00
          0.000000000000e+00 0.000000000000e+00 1.460000000000e+00
          0.000000000000e+00 0.000000000000e+00 1.470000000000e+00
          0.000000000000e+00 0.000000000000e+00 1.480000000000e+00
          0.000000000000e+00 0.000000000000e+00 1.490000000000e+00
          0.000000000000e+00 0.000000000000e+00 1.500000000000e+00
          0.000000000000e+00 0.000000000000e+00 1.510000000000e+00
          0.000000000000e+00 0.000000000000e+00 1.520000000000e+00
          0.000000000000e+00 0.000000000000e+00 1.530000000000e+00
          0.000000000000e+00 0.000000000000e+00 1.540000000000e+00
          0.000000000000e+00 0.000000000000e+00 1.550000000000e+00
          0.000000000000e+00 0.000000000000e+00 1.560000000000e+00
          0.000000000000e+00 0.000000000000e+00 1.570000000000e+00
          0.000000000000e+00 0.000000000000e+00 1.580000000000e+00
          0.000000000000e+00 0.000000000000e+00 1.590000000000e+00
          0.000000000000e+00 0.000000000000e+00 1.600000000000e+00
          0.000000000000e+00 0.000000000000e+00 1.610000000000e+00
          0.000000000000e+00 0.000000000000e+00 1.620000000000e+00
          0.000000000000e+00 0.000000000000e+00 1.630000000000e+00
          0.000000000000e+00 0.000000000000e+00 1.640000000000e+00
          0.000000000000e+00 0.000000000000e+00 1.650000000000e+00
          0.000000000000e+00 0.000000000000e+00 1.660000000000e+00
          0.000000000000e+00 0.000000000000e+00 1.670000000000e+00
          0.000000000000e+00 0.000000000000e+00 1.680000000000e+00
          0.000000000000e+00 0.000000000000e+00 1.690000000000e+00
          0.000000000000e+00 0.000000000000e+00 1.700000000000e+00
          0.000000000000e+00 0.000000000000e+00 1.710000000000e+00
          0.000000000000e+00 0.000000000000e+00 1.720000000000e+00
          0.000000000000e+00 0.000000000000e+00 1.730000000000e+00
          0.000000000000e+00 0.000000000000e+00 1.740000000000e+00
          0.000000000000e+00 0.000000000000e+00 1.750000000000e+00
          0.000000000000e+00 0.000000000000e+00 1.760000000000e+00
          0.000000000000e+00 0.000000000000e+00 1.770000000000e+00
          0.000000000000e+00 0.000000000000e+00 1.780000000000e+00
          0.000000000000e+00 0.000000000000e+00 1.790000000000e+00
          0.000000000000e+00 0.000000000000e+00 1.800000000000e+00
          0.000000000000e+00 0.000000000000e+00 1.810000000000e+00
          0.000000000000e+00 0.000000000000e+00 1.820000000000e+00
          0.000000000000e+00 0.000000000000e+00 1.830000000000e+00
          0.000000000000e+00 0.000000000000e+00 1.840000000000e+00
          0.000000000000e+00 0.000000000000e+00 1.850000000000e+00
          0.000000000000e+00 0.000000000000e+00 1.860000000000e+00
          0.000000000000e+00 0.000000000000e+00 1.870000000000e+00
          0.000000000000e+00 0.000000000000e+00 1.880000000000e+00
          0.000000000000e+00 0.000000000000e+00 1.890000000000e+00
          0.000000000000e+00 0.000000000000e+00 1.900000000000e+00
          0.000000000000e+00 0.000000000000e+00 1.910000000000e+00
          0.000000000000e+00 0.000000000000e+00 1.920000000000e+00
          0.000000000000e+00 0.000000000000e+00 1.930000000000e+00
          0.000000000000e+00 0.000000000000e+00 1.940000000000e+00
          0.000000000000e+00 0.000000000000e+00 1.950000000000e+00
          0.000000000000e+00 0.000000000000e+00 1.960000000000e+00
          0.000000000000e+00 0.000000000000e+00 1.970000000000e+00
          0.000000000000e+00 0.000000000000e+00 1.980000000000e+00
          0.000000000000e+00 0.000000000000e+00 1.990000000000e+00
          0.000000000000e+00 0.000000000000e+00 2.000000000000e+00
        </DataArray>
      </Points>
      <Cells>
        <DataArray type="Int64" Name="connectivity" format="ascii">
          0 1 
          1 2 
          2 3 
          3 4 
          4 5 
          5 6 
          6 7 
          7 8 
          8 9 
          9 10 
          10 11 
          11 12 
          12 13 
          13 14 
          14 15 
          15 16 
          16 17 
          17 18 
          18 19 
          19 20 
          20 21 
          21 22 
          22 23 
          23 24 
          24 25 
          25 26 
          26 27 
          27 28 
          28 29 
          29 30 
          30 31 
          31 32 
          32 33 
          33 34 
          34 35 
          35 36 
          36 37 
          37 38 
          38 39 
          39 40 
          40 41 
          41 42 
          42 43 
          43 44 
          44 45 
          45 46 
          46 47 
          47 48 
          48 49 
          49 50 
          50 51 
          51 52 
          52 53 
          53 54 
          54 55 
          55 56 
          56 57 
          57 58 
          58 59 
          59 60 
          60 61 
          61 62 
          62 63 
          63 64 
          64 65 
          65 66 
          66 67 
          67 68 
          68 69 
          69 70 
          70 71 
          71 72 
          72 73 
          73 74 
          74 75 
          75 76 
          76 77 
          77 78 
          78 79 
          79 80 
          80 81 
          81 82 
          82 83 
          83 84 
          84 85 
          85 86 
          86 87 
          87 88 
          88 89 
          89 90 
          90 91 
          91 92 
          92 93 
          93 94 
          94 95 
          95 96 
          96 97 
          97 98 
          98 99 
          99 100 
          100 101 
          101 102 
          102 103 
          103 104 
          104 105 
          105 106 
          106 107 
          107 108 
          108 109 
          109 110 
          110 111 
          111 112 
          112 113 
          113 114 
          114 115 
          115 116 
          116 117 
          117 118 
          118 119 
          119 120 
          120 121 
          121 122 
          122 123 
          123 124 
          124 125 
          125 126 
          126 127 
          127 128 
          128 129 
          129 130 
          130 131 
          131 132 
          132 133 
          133 134 
          134 135 
          135 136 
          136 137 
          137 138 
          138 139 
          139 140 
          140 141 
          141 142 
          142 143 
          143 144 
          144 145 
          145 146 
          146 147 
          147 148 
          148 149 
          149 150 
          150 151 
          151 152 
          152 153 
          153 154 
          154 155 
          155 156 
          156 157 
          157 158 
          158 159 
          159 160 
          160 161 
          161 162 
          162 163 
          163 164 
          164 165 
          165 166 
          166 167 
          167 168 
          168 169 
          169 170 
          170 171 
          171 172 
          172 173 
          173 174 
          174 175 
          175 176 
          176 177 
          177 178 
          178 179 
          179 180 
          180 181 
          181 182 
          182 183 
          183 184 
          184 185 
          185 186 
          186 187 
          187 188 
          188 189 
          189 190 
          190 191 
          191 192 
          192 193 
          193 194 
          194 195 
          195 196 
          196 197 
          197 198 
          198 199 
          199 200 
        </DataArray>
        <DataArray type="Int64" Name="offsets" format="ascii">
          2 4 6 8 10 12 14 16 18 20 22 24 26 28 30 32 34 36 38 40 42 44 46 48 50 52 54 56 58 60 62 64 66 68 70 72 74 76 78 80 82 84 86 88 90 92 94 96 98 100 102 104 106 108 110 112 114 116 118 120 122 124 126 128 130 132 134 136 138 140 142 144 146 148 150 152 154 156 158 160 162 164 166 168 170 172 174 176 178 180 182 184 186 188 190 192 194 196 198 200 202 204 206 208 210 212 214 216 218 220 222 224 226 228 230 232 234 236 238 240 242 244 246 248 250 252 254 256 258 260 262 264 266 268 270 272 274 276 278 280 282 284 286 288 290 292 294 296 298 300 302 304 306 308 310 312 314 316 318 320 322 324 326 328 330 332 334 336 338 340 342 344 346 348 350 352 354 356 358 360 362 364 366 368 370 372 374 376 378 380 382 384 386 388 390 392 394 396 398 400 
        </DataArray>
        <DataArray type="UInt8" Name="types" format="ascii">
          3 3 3 3 3 3 3 3 3 3 3 3 3 3 3 3 3 3 3 3 3 3 3 3 3 3 3 3 3 3 3 3 3 3 3 3 3 3 3 3 3 3 3 3 3 3 3 3 3 3 3 3 3 3 3 3 3 3 3 3 3 3 3 3 3 3 3 3 3 3 3 3 3 3 3 3 3 3 3 3 3 3 3 3 3 3 3 3 3 3 3 3 3 3 3 3 3 3 3 3 3 3 3 3 3 3 3 3 3 3 3 3 3 3 3 3 3 3 3 3 3 3 3 3 3 3 3 3 3 3 3 3 3 3 3 3 3 3 3 3 3 3 3 3 3 3 3 3 3 3 3 3 3 3 3 3 3 3 3 3 3 3 3 3 3 3 3 3 3 3 3 3 3 3 3 3 3 3 3 3 3 3 3 3 3 3 3 3 3 3 3 3 3 3 3 3 3 3 3 3 
        </DataArray>
      </Cells>
      <PointData Scalars="PRESSURE1">
        <DataArray type="Float64" Name="PRESSURE1" format="ascii">
          -2.150000000000e+04 -2.150000000000e+04 -2.150000000000e+04 -2.150000000000e+04 -2.149999999999e+04 -2.149999999995e+04 -2.149999999974e+04 -2.149999999860e+04 -2.149999999254e+04 -2.149999996038e+04 -2.149999978976e+04 -2.149999888474e+04 -2.149999408645e+04 -2.149996865656e+04 -2.149983393516e+04 -2.149912050011e+04 -2.149534452344e+04 -2.147538450942e+04 -2.137036842313e+04 -2.083103692063e+04 -1.835604945268e+04 -1.130724454383e+04 -7.241502032406e+03 -5.862956365797e+03 -4.830990741172e+03 -4.207141764025e+03 -3.796358555253e+03 -3.505134070958e+03 -3.289901485115e+03 -3.122391236252e+03 -2.993699347656e+03 -2.889000861310e+03 -2.796535585621e+03 -2.709293240854e+03 -2.626779405322e+03 -2.548555956414e+03 -2.474239350844e+03 -2.403948313172e+03 -2.338256449564e+03 -2.276650986738e+03 -2.218661527627e+03 -2.163897906150e+03 -2.112032404368e+03 -2.062786840494e+03 -2.016159444773e+03 -1.972655918057e+03 -1.931998111115e+03 -1.893888169207e+03 -1.858074121465e+03 -1.824340555110e+03 -1.792501622700e+03 -1.762395713251e+03 -1.733881340435e+03 -1.706833945019e+03 -1.681411491596e+03 -1.657792313382e+03 -1.635799009458e+03 -1.615278612785e+03 -1.596098241387e+03 -1.578141629447e+03 -1.561306403182e+03 -1.545501911936e+03 -1.530647480097e+03 -1.516670982711e+03 -1.503507673271e+03 -1.491099210042e+03 -1.479392839855e+03 -1.468340707254e+03 -1.457899263051e+03 -1.448028750545e+03 -1.438692750108e+03 -1.429857763697e+03 -1.421492820163e+03 -1.413327031531e+03 -1.405103914534e+03 -1.396823232368e+03 -1.388484675015e+03 -1.380087934774e+03 -1.371632746766e+03 -1.363118907696e+03 -1.354546281612e+03 -1.345914798242e+03 -1.337224447492e+03 -1.328475272290e+03 -1.319667361067e+03 -1.310800840620e+03 -1.301875869703e+03 -1.292892633513e+03 -1.283851339063e+03 -1.274752211395e+03 -1.265595490543e+03 -1.256381429130e+03 -1.247110290498e+03 -1.237782347278e+03 -1.228397880311e+03 -1.218957177843e+03 -1.209460534939e+03 -1.199908253059e+03 -1.190300639762e+03 -1.180638008499e+03 -1.170920678480e+03 -1.161148974577e+03 -1.151323227273e+03 -1.141443772623e+03 -1.131510952238e+03 -1.121525113267e+03 -1.111486608388e+03 -1.101395795805e+03 -1.091253039233e+03 -1.081058707892e+03 -1.070813176490e+03 -1.060516825209e+03 -1.050170039683e+03 -1.039773210979e+03 -1.029326735570e+03 -1.018831015308e+03 -1.008286457395e+03 -9.976934743498e+02 -9.870524839760e+02 -9.763639093268e+02 -9.656281786680e+02 -9.548457254410e+02 -9.440169882231e+02 -9.331424106884e+02 -9.222224415665e+02 -9.112575346008e+02 -9.002481485057e+02 -8.891947469236e+02 -8.780977983802e+02 -8.669577762397e+02 -8.557751586590e+02 -8.445504285411e+02 -8.332840734878e+02 -8.219765857523e+02 -8.106284621895e+02 -7.992402042073e+02 -7.878123177166e+02 -7.763453130795e+02 -7.648397050590e+02 -7.532960127656e+02 -7.417147596050e+02 -7.300964732243e+02 -7.184416854573e+02 -7.067509322700e+02 -6.950247537043e+02 -6.832636938219e+02 -6.714683006470e+02 -6.596391261088e+02 -6.477767259828e+02 -6.358816598318e+02 -6.239544909464e+02 -6.119957862840e+02 -6.000061164088e+02 -5.879860554293e+02 -5.759361809365e+02 -5.638570739410e+02 -5.517493188097e+02 -5.396135032017e+02 -5.274502180037e+02 -5.152600572649e+02 -5.030436181317e+02 -4.908015007807e+02 -4.785343083527e+02 -4.662426468853e+02 -4.539271252446e+02 -4.415883550579e+02 -4.292269506439e+02 -4.168435289443e+02 -4.044387094537e+02 -3.920131141497e+02 -3.795673674221e+02 -3.671020960020e+02 -3.546179288908e+02 -3.421154972876e+02 -3.295954345176e+02 -3.170583759596e+02 -3.045049589727e+02 -2.919358228230e+02 -2.793516086105e+02 -2.667529591946e+02 -2.541405191202e+02 -2.415149345431e+02 -2.288768531548e+02 -2.162269241079e+02 -2.035657979406e+02 -1.908941265009e+02 -1.782125628708e+02 -1.655217612905e+02 -1.528223770817e+02 -1.401150665714e+02 -1.274004870155e+02 -1.146792965214e+02 -1.019521539716e+02 -8.921971894621e+01 -7.648265164600e+01 -6.374161281494e+01 -5.099726366280e+01 -3.825026578766e+01 -2.550128109833e+01 -1.275097173667e+01 0.000000000000e+00 
        </DataArray>
        <DataArray type="Float64" Name="SATURATION1" format="ascii">
          4.545259079631e-01 4.545259079631e-01 4.545259079631e-01 4.545259079631e-01 4.545259079632e-01 4.545259079637e-01 4.545259079663e-01 4.545259079803e-01 4.545259080542e-01 4.545259084465e-01 4.545259105286e-01 4.545259215722e-01 4.545259801242e-01 4.545262904366e-01 4.545279343967e-01 4.545366402052e-01 4.545827171814e-01 4.548262825349e-01 4.561077585974e-01 4.626890399486e-01 4.901935633505e-01 6.021566680164e-01 7.249329287994e-01 7.747725549463e-01 8.196061985697e-01 8.550065561669e-01 8.809004173512e-01 9.009050620950e-01 9.167722182995e-01 9.300480788715e-01 9.406406132639e-01 9.491268507348e-01 9.515255661180e-01 9.538743571659e-01 9.560958444350e-01 9.582018233266e-01 9.601824675619e-01 9.623850518363e-01 9.644874681281e-01 9.664560811361e-01 9.683091441323e-01 9.700591249401e-01 9.717164958417e-01 9.732728046557e-01 9.749931225089e-01 9.766695390802e-01 9.782296709116e-01 9.796920354102e-01 9.810663012669e-01 9.823607343566e-01 9.835824660648e-01 9.847376977701e-01 9.858318586220e-01 9.868725012972e-01 9.880466882431e-01 9.891350109524e-01 9.901484167491e-01 9.910939540367e-01 9.919777457409e-01 9.928051491493e-01 9.935808814333e-01 9.943091195869e-01 9.949935809750e-01 9.956375889656e-01 9.962441269435e-01 9.968158831748e-01 9.973552884159e-01 9.978645477469e-01 9.983456678241e-01 9.988004805536e-01 9.992306640764e-01 9.996377619128e-01 1.000000000000e+00 1.000000000000e+00 1.000000000000e+00 1.000000000000e+00 1.000000000000e+00 1.000000000000e+00 1.000000000000e+00 1.000000000000e+00 1.000000000000e+00 1.000000000000e+00 1.000000000000e+00 1.000000000000e+00 1.000000000000e+00 1.000000000000e+00 1.000000000000e+00 1.000000000000e+00 1.000000000000e+00 1.000000000000e+00 1.000000000000e+00 1.000000000000e+00 1.000000000000e+00 1.000000000000e+00 1.000000000000e+00 1.000000000000e+00 1.000000000000e+00 1.000000000000e+00 1.000000000000e+00 1.000000000000e+00 1.000000000000e+00 1.000000000000e+00 1.000000000000e+00 1.000000000000e+00 1.000000000000e+00 1.000000000000e+00 1.000000000000e+00 1.000000000000e+00 1.000000000000e+00 1.000000000000e+00 1.000000000000e+00 1.000000000000e+00 1.000000000000e+00 1.000000000000e+00 1.000000000000e+00 1.000000000000e+00 1.000000000000e+00 1.000000000000e+00 1.000000000000e+00 1.000000000000e+00 1.000000000000e+00 1.000000000000e+00 1.000000000000e+00 1.000000000000e+00 1.000000000000e+00 1.000000000000e+00 1.000000000000e+00 1.000000000000e+00 1.000000000000e+00 1.000000000000e+00 1.000000000000e+00 1.000000000000e+00 1.000000000000e+00 1.000000000000e+00 1.000000000000e+00 1.000000000000e+00 1.000000000000e+00 1.000000000000e+00 1.000000000000e+00 1.000000000000e+00 1.000000000000e+00 1.000000000000e+00 1.000000000000e+00 1.000000000000e+00 1.000000000000e+00 1.000000000000e+00 1.000000000000e+00 1.000000000000e+00 1.000000000000e+00 1.000000000000e+00 1.000000000000e+00 1.000000000000e+00 1.000000000000e+00 1.000000000000e+00 1.000000000000e+00 1.000000000000e+00 1.000000000000e+00 1.000000000000e+00 1.000000000000e+00 1.000000000000e+00 1.000000000000e+00 1.000000000000e+00 1.000000000000e+00 1.000000000000e+00 1.000000000000e+00 1.000000000000e+00 1.000000000000e+00 1.000000000000e+00 1.000000000000e+00 1.000000000000e+00 1.000000000000e+00 1.000000000000e+00 1.000000000000e+00 1.000000000000e+00 1.000000000000e+00 1.000000000000e+00 1.000000000000e+00 1.000000000000e+00 1.000000000000e+00 1.000000000000e+00 1.000000000000e+00 1.000000000000e+00 1.000000000000e+00 1.000000000000e+00 1.000000000000e+00 1.000000000000e+00 1.000000000000e+00 1.000000000000e+00 1.000000000000e+00 1.000000000000e+00 1.000000000000e+00 1.000000000000e+00 1.000000000000e+00 1.000000000000e+00 1.000000000000e+00 1.000000000000e+00 1.000000000000e+00 1.000000000000e+00 1.000000000000e+00 1.000000000000e+00 1.000000000000e+00 
        </DataArray>
      </PointData>
      <CellData>
      </CellData>
    </Piece>
  </UnstructuredGrid>
</VTKFile>
