<?xml version="1.0"?>
<!-- Time step: 932 | Time: 3.240000000000e+04 -->
<VTKFile type="UnstructuredGrid" version="0.1" byte_order="LittleEndian">
  <UnstructuredGrid>
    <Piece NumberOfPoints="201" NumberOfCells="200">
      <Points>
        <DataArray type="Float64" NumberOfComponents="3" format="ascii">
          0.000000000000e+00 0.000000000000e+00 0.000000000000e+00
          0.000000000000e+00 0.000000000000e+00 1.000000000000e-02
          0.000000000000e+00 0.000000000000e+00 2.000000000000e-02
          0.000000000000e+00 0.000000000000e+00 3.000000000000e-02
          0.000000000000e+00 0.000000000000e+00 4.000000000000e-02
          0.000000000000e+00 0.000000000000e+00 5.000000000000e-02
          0.000000000000e+00 0.000000000000e+00 6.000000000000e-02
          0.000000000000e+00 0.000000000000e+00 7.000000000000e-02
          0.000000000000e+00 0.000000000000e+00 8.000000000000e-02
          0.000000000000e+00 0.000000000000e+00 9.000000000000e-02
          0.000000000000e+00 0.000000000000e+00 1.000000000000e-01
          0.000000000000e+00 0.000000000000e+00 1.100000000000e-01
          0.000000000000e+00 0.000000000000e+00 1.200000000000e-01
          0.000000000000e+00 0.000000000000e+00 1.300000000000e-01
          0.000000000000e+00 0.000000000000e+00 1.400000000000e-01
          0.000000000000e+00 0.000000000000e+00 1.500000000000e-01
          0.000000000000e+00 0.000000000000e+00 1.600000000000e-01
          0.000000000000e+00 0.000000000000e+00 1.700000000000e-01
          0.000000000000e+00 0.000000000000e+00 1.800000000000e-01
          0.000000000000e+00 0.000000000000e+00 1.900000000000e-01
          0.000000000000e+00 0.000000000000e+00 2.000000000000e-01
          0.000000000000e+00 0.000000000000e+00 2.100000000000e-01
          0.000000000000e+00 0.000000000000e+00 2.200000000000e-01
          0.000000000000e+00 0.000000000000e+00 2.300000000000e-01
          0.000000000000e+00 0.000000000000e+00 2.400000000000e-01
          0.000000000000e+00 0.000000000000e+00 2.500000000000e-01
          0.000000000000e+00 0.000000000000e+00 2.600000000000e-01
          0.000000000000e+00 0.000000000000e+00 2.700000000000e-01
          0.000000000000e+00 0.000000000000e+00 2.800000000000e-01
          0.000000000000e+00 0.000000000000e+00 2.900000000000e-01
          0.000000000000e+00 0.000000000000e+00 3.000000000000e-01
          0.000000000000e+00 0.000000000000e+00 3.100000000000e-01
          0.000000000000e+00 0.000000000000e+00 3.200000000000e-01
          0.000000000000e+00 0.000000000000e+00 3.300000000000e-01
          0.000000000000e+00 0.000000000000e+00 3.400000000000e-01
          0.000000000000e+00 0.000000000000e+00 3.500000000000e-01
          0.000000000000e+00 0.000000000000e+00 3.600000000000e-01
          0.000000000000e+00 0.000000000000e+00 3.700000000000e-01
          0.000000000000e+00 0.000000000000e+00 3.800000000000e-01
          0.000000000000e+00 0.000000000000e+00 3.900000000000e-01
          0.000000000000e+00 0.000000000000e+00 4.000000000000e-01
          0.000000000000e+00 0.000000000000e+00 4.100000000000e-01
          0.000000000000e+00 0.000000000000e+00 4.200000000000e-01
          0.000000000000e+00 0.000000000000e+00 4.300000000000e-01
          0.000000000000e+00 0.000000000000e+00 4.400000000000e-01
          0.000000000000e+00 0.000000000000e+00 4.500000000000e-01
          0.000000000000e+00 0.000000000000e+00 4.600000000000e-01
          0.000000000000e+00 0.000000000000e+00 4.700000000000e-01
          0.000000000000e+00 0.000000000000e+00 4.800000000000e-01
          0.000000000000e+00 0.000000000000e+00 4.900000000000e-01
          0.000000000000e+00 0.000000000000e+00 5.000000000000e-01
          0.000000000000e+00 0.000000000000e+00 5.100000000000e-01
          0.000000000000e+00 0.000000000000e+00 5.200000000000e-01
          0.000000000000e+00 0.000000000000e+00 5.300000000000e-01
          0.000000000000e+00 0.000000000000e+00 5.400000000000e-01
          0.000000000000e+00 0.000000000000e+00 5.500000000000e-01
          0.000000000000e+00 0.000000000000e+00 5.600000000000e-01
          0.000000000000e+00 0.000000000000e+00 5.700000000000e-01
          0.000000000000e+00 0.000000000000e+00 5.800000000000e-01
          0.000000000000e+00 0.000000000000e+00 5.900000000000e-01
          0.000000000000e+00 0.000000000000e+00 6.000000000000e-01
          0.000000000000e+00 0.000000000000e+00 6.100000000000e-01
          0.000000000000e+00 0.000000000000e+00 6.200000000000e-01
          0.000000000000e+00 0.000000000000e+00 6.300000000000e-01
          0.000000000000e+00 0.000000000000e+00 6.400000000000e-01
          0.000000000000e+00 0.000000000000e+00 6.500000000000e-01
          0.000000000000e+00 0.000000000000e+00 6.600000000000e-01
          0.000000000000e+00 0.000000000000e+00 6.700000000000e-01
          0.000000000000e+00 0.000000000000e+00 6.800000000000e-01
          0.000000000000e+00 0.000000000000e+00 6.900000000000e-01
          0.000000000000e+00 0.000000000000e+00 7.000000000000e-01
          0.000000000000e+00 0.000000000000e+00 7.100000000000e-01
          0.000000000000e+00 0.000000000000e+00 7.200000000000e-01
          0.000000000000e+00 0.000000000000e+00 7.300000000000e-01
          0.000000000000e+00 0.000000000000e+00 7.400000000000e-01
          0.000000000000e+00 0.000000000000e+00 7.500000000000e-01
          0.000000000000e+00 0.000000000000e+00 7.600000000000e-01
          0.000000000000e+00 0.000000000000e+00 7.700000000000e-01
          0.000000000000e+00 0.000000000000e+00 7.800000000000e-01
          0.000000000000e+00 0.000000000000e+00 7.900000000000e-01
          0.000000000000e+00 0.000000000000e+00 8.000000000000e-01
          0.000000000000e+00 0.000000000000e+00 8.100000000000e-01
          0.000000000000e+00 0.000000000000e+00 8.200000000000e-01
          0.000000000000e+00 0.000000000000e+00 8.300000000000e-01
          0.000000000000e+00 0.000000000000e+00 8.400000000000e-01
          0.000000000000e+00 0.000000000000e+00 8.500000000000e-01
          0.000000000000e+00 0.000000000000e+00 8.600000000000e-01
          0.000000000000e+00 0.000000000000e+00 8.700000000000e-01
          0.000000000000e+00 0.000000000000e+00 8.800000000000e-01
          0.000000000000e+00 0.000000000000e+00 8.900000000000e-01
          0.000000000000e+00 0.000000000000e+00 9.000000000000e-01
          0.000000000000e+00 0.000000000000e+00 9.100000000000e-01
          0.000000000000e+00 0.000000000000e+00 9.200000000000e-01
          0.000000000000e+00 0.000000000000e+00 9.300000000000e-01
          0.000000000000e+00 0.000000000000e+00 9.400000000000e-01
          0.000000000000e+00 0.000000000000e+00 9.500000000000e-01
          0.000000000000e+00 0.000000000000e+00 9.600000000000e-01
          0.000000000000e+00 0.000000000000e+00 9.700000000000e-01
          0.000000000000e+00 0.000000000000e+00 9.800000000000e-01
          0.000000000000e+00 0.000000000000e+00 9.900000000000e-01
          0.000000000000e+00 0.000000000000e+00 1.000000000000e+00
          0.000000000000e+00 0.000000000000e+00 1.010000000000e+00
          0.000000000000e+00 0.000000000000e+00 1.020000000000e+00
          0.000000000000e+00 0.000000000000e+00 1.030000000000e+00
          0.000000000000e+00 0.000000000000e+00 1.040000000000e+00
          0.000000000000e+00 0.000000000000e+00 1.050000000000e+00
          0.000000000000e+00 0.000000000000e+00 1.060000000000e+00
          0.000000000000e+00 0.000000000000e+00 1.070000000000e+00
          0.000000000000e+00 0.000000000000e+00 1.080000000000e+00
          0.000000000000e+00 0.000000000000e+00 1.090000000000e+00
          0.000000000000e+00 0.000000000000e+00 1.100000000000e+00
          0.000000000000e+00 0.000000000000e+00 1.110000000000e+00
          0.000000000000e+00 0.000000000000e+00 1.120000000000e+00
          0.000000000000e+00 0.000000000000e+00 1.130000000000e+00
          0.000000000000e+00 0.000000000000e+00 1.140000000000e+00
          0.000000000000e+00 0.000000000000e+00 1.150000000000e+00
          0.000000000000e+00 0.000000000000e+00 1.160000000000e+00
          0.000000000000e+00 0.000000000000e+00 1.170000000000e+00
          0.000000000000e+00 0.000000000000e+00 1.180000000000e+00
          0.000000000000e+00 0.000000000000e+00 1.190000000000e+00
          0.000000000000e+00 0.000000000000e+00 1.200000000000e+00
          0.000000000000e+00 0.000000000000e+00 1.210000000000e+00
          0.000000000000e+00 0.000000000000e+00 1.220000000000e+00
          0.000000000000e+00 0.000000000000e+00 1.230000000000e+00
          0.000000000000e+00 0.000000000000e+00 1.240000000000e+00
          0.000000000000e+00 0.000000000000e+00 1.250000000000e+00
          0.000000000000e+00 0.000000000000e+00 1.260000000000e+00
          0.000000000000e+00 0.000000000000e+00 1.270000000000e+00
          0.000000000000e+00 0.000000000000e+00 1.280000000000e+00
          0.000000000000e+00 0.000000000000e+00 1.290000000000e+00
          0.000000000000e+00 0.000000000000e+00 1.300000000000e+00
          0.000000000000e+00 0.000000000000e+00 1.310000000000e+00
          0.000000000000e+00 0.000000000000e+00 1.320000000000e+00
          0.000000000000e+00 0.000000000000e+00 1.330000000000e+00
          0.000000000000e+00 0.000000000000e+00 1.340000000000e+00
          0.000000000000e+00 0.000000000000e+00 1.350000000000e+00
          0.000000000000e+00 0.000000000000e+00 1.360000000000e+00
          0.000000000000e+00 0.000000000000e+00 1.370000000000e+00
          0.000000000000e+00 0.000000000000e+00 1.380000000000e+00
          0.000000000000e+00 0.000000000000e+00 1.390000000000e+00
          0.000000000000e+00 0.000000000000e+00 1.400000000000e+00
          0.000000000000e+00 0.000000000000e+00 1.410000000000e+00
          0.000000000000e+00 0.000000000000e+00 1.420000000000e+00
          0.000000000000e+00 0.000000000000e+00 1.430000000000e+00
          0.000000000000e+00 0.000000000000e+00 1.440000000000e+00
          0.000000000000e+00 0.000000000000e+00 1.450000000000e+00
          0.000000000000e+00 0.000000000000e+00 1.460000000000e+00
          0.000000000000e+00 0.000000000000e+00 1.470000000000e+00
          0.000000000000e+00 0.000000000000e+00 1.480000000000e+00
          0.000000000000e+00 0.000000000000e+00 1.490000000000e+00
          0.000000000000e+00 0.000000000000e+00 1.500000000000e+00
          0.000000000000e+00 0.000000000000e+00 1.510000000000e+00
          0.000000000000e+00 0.000000000000e+00 1.520000000000e+00
          0.000000000000e+00 0.000000000000e+00 1.530000000000e+00
          0.000000000000e+00 0.000000000000e+00 1.540000000000e+00
          0.000000000000e+00 0.000000000000e+00 1.550000000000e+00
          0.000000000000e+00 0.000000000000e+00 1.560000000000e+00
          0.000000000000e+00 0.000000000000e+00 1.570000000000e+00
          0.000000000000e+00 0.000000000000e+00 1.580000000000e+00
          0.000000000000e+00 0.000000000000e+00 1.590000000000e+00
          0.000000000000e+00 0.000000000000e+00 1.600000000000e+00
          0.000000000000e+00 0.000000000000e+00 1.610000000000e+00
          0.000000000000e+00 0.000000000000e+00 1.620000000000e+00
          0.000000000000e+00 0.000000000000e+00 1.630000000000e+00
          0.000000000000e+00 0.000000000000e+00 1.640000000000e+00
          0.000000000000e+00 0.000000000000e+00 1.650000000000e+00
          0.000000000000e+00 0.000000000000e+00 1.660000000000e+00
          0.000000000000e+00 0.000000000000e+00 1.670000000000e+00
          0.000000000000e+00 0.000000000000e+00 1.680000000000e+00
          0.000000000000e+00 0.000000000000e+00 1.690000000000e+00
          0.000000000000e+00 0.000000000000e+00 1.700000000000e+00
          0.000000000000e+00 0.000000000000e+00 1.710000000000e+00
          0.000000000000e+00 0.000000000000e+00 1.720000000000e+00
          0.000000000000e+00 0.000000000000e+00 1.730000000000e+00
          0.000000000000e+00 0.000000000000e+00 1.740000000000e+00
          0.000000000000e+00 0.000000000000e+00 1.750000000000e+00
          0.000000000000e+00 0.000000000000e+00 1.760000000000e+00
          0.000000000000e+00 0.000000000000e+00 1.770000000000e+00
          0.000000000000e+00 0.000000000000e+00 1.780000000000e+00
          0.000000000000e+00 0.000000000000e+00 1.790000000000e+00
          0.000000000000e+00 0.000000000000e+00 1.800000000000e+00
          0.000000000000e+00 0.000000000000e+00 1.810000000000e+00
          0.000000000000e+00 0.000000000000e+00 1.820000000000e+00
          0.000000000000e+00 0.000000000000e+00 1.830000000000e+00
          0.000000000000e+00 0.000000000000e+00 1.840000000000e+00
          0.000000000000e+00 0.000000000000e+00 1.850000000000e+00
          0.000000000000e+00 0.000000000000e+00 1.860000000000e+00
          0.000000000000e+00 0.000000000000e+00 1.870000000000e+00
          0.000000000000e+00 0.000000000000e+00 1.880000000000e+00
          0.000000000000e+00 0.000000000000e+00 1.890000000000e+00
          0.000000000000e+00 0.000000000000e+00 1.900000000000e+00
          0.000000000000e+00 0.000000000000e+00 1.910000000000e+00
          0.000000000000e+00 0.000000000000e+00 1.920000000000e+00
          0.000000000000e+00 0.000000000000e+00 1.930000000000e+00
          0.000000000000e+00 0.000000000000e+00 1.940000000000e+00
          0.000000000000e+00 0.000000000000e+00 1.950000000000e+00
          0.000000000000e+00 0.000000000000e+00 1.960000000000e+00
          0.000000000000e+00 0.000000000000e+00 1.970000000000e+00
          0.000000000000e+00 0.000000000000e+00 1.980000000000e+00
          0.000000000000e+00 0.000000000000e+00 1.990000000000e+00
          0.000000000000e+00 0.000000000000e+00 2.000000000000e+00
        </DataArray>
      </Points>
      <Cells>
        <DataArray type="Int64" Name="connectivity" format="ascii">
          0 1 
          1 2 
          2 3 
          3 4 
          4 5 
          5 6 
          6 7 
          7 8 
          8 9 
          9 10 
          10 11 
          11 12 
          12 13 
          13 14 
          14 15 
          15 16 
          16 17 
          17 18 
          18 19 
          19 20 
          20 21 
          21 22 
          22 23 
          23 24 
          24 25 
          25 26 
          26 27 
          27 28 
          28 29 
          29 30 
          30 31 
          31 32 
          32 33 
          33 34 
          34 35 
          35 36 
          36 37 
          37 38 
          38 39 
          39 40 
          40 41 
          41 42 
          42 43 
          43 44 
          44 45 
          45 46 
          46 47 
          47 48 
          48 49 
          49 50 
          50 51 
          51 52 
          52 53 
          53 54 
          54 55 
          55 56 
          56 57 
          57 58 
          58 59 
          59 60 
          60 61 
          61 62 
          62 63 
          63 64 
          64 65 
          65 66 
          66 67 
          67 68 
          68 69 
          69 70 
          70 71 
          71 72 
          72 73 
          73 74 
          74 75 
          75 76 
          76 77 
          77 78 
          78 79 
          79 80 
          80 81 
          81 82 
          82 83 
          83 84 
          84 85 
          85 86 
          86 87 
          87 88 
          88 89 
          89 90 
          90 91 
          91 92 
          92 93 
          93 94 
          94 95 
          95 96 
          96 97 
          97 98 
          98 99 
          99 100 
          100 101 
          101 102 
          102 103 
          103 104 
          104 105 
          105 106 
          106 107 
          107 108 
          108 109 
          109 110 
          110 111 
          111 112 
          112 113 
          113 114 
          114 115 
          115 116 
          116 117 
          117 118 
          118 119 
          119 120 
          120 121 
          121 122 
          122 123 
          123 124 
          124 125 
          125 126 
          126 127 
          127 128 
          128 129 
          129 130 
          130 131 
          131 132 
          132 133 
          133 134 
          134 135 
          135 136 
          136 137 
          137 138 
          138 139 
          139 140 
          140 141 
          141 142 
          142 143 
          143 144 
          144 145 
          145 146 
          146 147 
          147 148 
          148 149 
          149 150 
          150 151 
          151 152 
          152 153 
          153 154 
          154 155 
          155 156 
          156 157 
          157 158 
          158 159 
          159 160 
          160 161 
          161 162 
          162 163 
          163 164 
          164 165 
          165 166 
          166 167 
          167 168 
          168 169 
          169 170 
          170 171 
          171 172 
          172 173 
          173 174 
          174 175 
          175 176 
          176 177 
          177 178 
          178 179 
          179 180 
          180 181 
          181 182 
          182 183 
          183 184 
          184 185 
          185 186 
          186 187 
          187 188 
          188 189 
          189 190 
          190 191 
          191 192 
          192 193 
          193 194 
          194 195 
          195 196 
          196 197 
          197 198 
          198 199 
          199 200 
        </DataArray>
        <DataArray type="Int64" Name="offsets" format="ascii">
          2 4 6 8 10 12 14 16 18 20 22 24 26 28 30 32 34 36 38 40 42 44 46 48 50 52 54 56 58 60 62 64 66 68 70 72 74 76 78 80 82 84 86 88 90 92 94 96 98 100 102 104 106 108 110 112 114 116 118 120 122 124 126 128 130 132 134 136 138 140 142 144 146 148 150 152 154 156 158 160 162 164 166 168 170 172 174 176 178 180 182 184 186 188 190 192 194 196 198 200 202 204 206 208 210 212 214 216 218 220 222 224 226 228 230 232 234 236 238 240 242 244 246 248 250 252 254 256 258 260 262 264 266 268 270 272 274 276 278 280 282 284 286 288 290 292 294 296 298 300 302 304 306 308 310 312 314 316 318 320 322 324 326 328 330 332 334 336 338 340 342 344 346 348 350 352 354 356 358 360 362 364 366 368 370 372 374 376 378 380 382 384 386 388 390 392 394 396 398 400 
        </DataArray>
        <DataArray type="UInt8" Name="types" format="ascii">
          3 3 3 3 3 3 3 3 3 3 3 3 3 3 3 3 3 3 3 3 3 3 3 3 3 3 3 3 3 3 3 3 3 3 3 3 3 3 3 3 3 3 3 3 3 3 3 3 3 3 3 3 3 3 3 3 3 3 3 3 3 3 3 3 3 3 3 3 3 3 3 3 3 3 3 3 3 3 3 3 3 3 3 3 3 3 3 3 3 3 3 3 3 3 3 3 3 3 3 3 3 3 3 3 3 3 3 3 3 3 3 3 3 3 3 3 3 3 3 3 3 3 3 3 3 3 3 3 3 3 3 3 3 3 3 3 3 3 3 3 3 3 3 3 3 3 3 3 3 3 3 3 3 3 3 3 3 3 3 3 3 3 3 3 3 3 3 3 3 3 3 3 3 3 3 3 3 3 3 3 3 3 3 3 3 3 3 3 3 3 3 3 3 3 3 3 3 3 3 3 
        </DataArray>
      </Cells>
      <PointData Scalars="PRESSURE1">
        <DataArray type="Float64" Name="PRESSURE1" format="ascii">
          -2.150000000000e+04 -2.150000000000e+04 -2.150000000000e+04 -2.150000000000e+04 -2.150000000000e+04 -2.150000000000e+04 -2.150000000000e+04 -2.150000000000e+04 -2.150000000000e+04 -2.150000000000e+04 -2.150000000000e+04 -2.150000000000e+04 -2.150000000000e+04 -2.150000000000e+04 -2.150000000000e+04 -2.150000000000e+04 -2.150000000000e+04 -2.150000000000e+04 -2.150000000000e+04 -2.150000000000e+04 -2.150000000000e+04 -2.150000000000e+04 -2.150000000000e+04 -2.150000000000e+04 -2.150000000000e+04 -2.150000000000e+04 -2.150000000000e+04 -2.150000000000e+04 -2.150000000000e+04 -2.150000000000e+04 -2.150000000000e+04 -2.150000000000e+04 -2.150000000000e+04 -2.150000000000e+04 -2.150000000000e+04 -2.150000000000e+04 -2.150000000000e+04 -2.150000000000e+04 -2.150000000000e+04 -2.150000000000e+04 -2.150000000000e+04 -2.150000000000e+04 -2.150000000000e+04 -2.150000000000e+04 -2.150000000000e+04 -2.150000000000e+04 -2.150000000000e+04 -2.150000000000e+04 -2.150000000000e+04 -2.150000000000e+04 -2.150000000000e+04 -2.150000000000e+04 -2.150000000000e+04 -2.150000000000e+04 -2.150000000000e+04 -2.150000000000e+04 -2.150000000000e+04 -2.150000000000e+04 -2.150000000000e+04 -2.150000000000e+04 -2.150000000000e+04 -2.150000000000e+04 -2.150000000000e+04 -2.150000000000e+04 -2.150000000000e+04 -2.150000000000e+04 -2.150000000000e+04 -2.150000000000e+04 -2.150000000000e+04 -2.150000000000e+04 -2.150000000000e+04 -2.150000000000e+04 -2.150000000000e+04 -2.149999999999e+04 -2.149999999996e+04 -2.149999999975e+04 -2.149999999855e+04 -2.149999999150e+04 -2.149999995011e+04 -2.149999970760e+04 -2.149999828880e+04 -2.149998999934e+04 -2.149994162060e+04 -2.149965949152e+04 -2.149801483179e+04 -2.148843071776e+04 -2.143273765279e+04 -2.111494875530e+04 -1.945795999920e+04 -1.312362669034e+04 -7.400530969857e+03 -5.879173527944e+03 -4.773708129496e+03 -4.120349254275e+03 -3.701046635603e+03 -3.408005584890e+03 -3.192691424870e+03 -3.029651989422e+03 -2.902653491438e+03 -2.794412952750e+03 -2.693032451751e+03 -2.597421403678e+03 -2.507037224063e+03 -2.421527336380e+03 -2.341766719805e+03 -2.267405072597e+03 -2.197740063809e+03 -2.132205324796e+03 -2.070336259182e+03 -2.011909231777e+03 -1.957663730854e+03 -1.907224145014e+03 -1.860140889429e+03 -1.816043575398e+03 -1.774622795559e+03 -1.735616974383e+03 -1.698802665213e+03 -1.664524687710e+03 -1.632841483700e+03 -1.603461737737e+03 -1.576141356996e+03 -1.550673496146e+03 -1.526881114448e+03 -1.504611340303e+03 -1.483731132633e+03 -1.464123890050e+03 -1.445686763746e+03 -1.428328499979e+03 -1.411853931224e+03 -1.395376448966e+03 -1.378777232190e+03 -1.362057246197e+03 -1.345217503587e+03 -1.328259065900e+03 -1.311183041688e+03 -1.293990582831e+03 -1.276682880231e+03 -1.259261159560e+03 -1.241726677457e+03 -1.224080718323e+03 -1.206324591775e+03 -1.188459630702e+03 -1.170487189856e+03 -1.152408644886e+03 -1.134225391701e+03 -1.115938846097e+03 -1.097550443543e+03 -1.079061639089e+03 -1.060473907321e+03 -1.041788742345e+03 -1.023007657763e+03 -1.004132186622e+03 -9.851638813307e+02 -9.661043135369e+02 -9.469550739624e+02 -9.277177721969e+02 -9.083940364570e+02 -8.889855133114e+02 -8.694938673776e+02 -8.499207809966e+02 -8.302679538865e+02 -8.105371027825e+02 -7.907299610638e+02 -7.708482783724e+02 -7.508938202244e+02 -7.308683676176e+02 -7.107737166347e+02 -6.906116780449e+02 -6.703840769039e+02 -6.500927521524e+02 -6.297395562144e+02 -6.093263545948e+02 -5.888550254758e+02 -5.683274593138e+02 -5.477455584341e+02 -5.271112366260e+02 -5.064264187365e+02 -4.856930402620e+02 -4.649130469403e+02 -4.440883943395e+02 -4.232210474466e+02 -4.023129802542e+02 -3.813661753448e+02 -3.603826234750e+02 -3.393643231561e+02 -3.183132802347e+02 -2.972315074707e+02 -2.761210241137e+02 -2.549838554784e+02 -2.338220325178e+02 -2.126375913955e+02 -1.914325730563e+02 -1.702090227959e+02 -1.489689898289e+02 -1.277145268565e+02 -1.064476896325e+02 -8.517053652865e+01 -6.388512809988e+01 -4.259352664809e+01 -2.129779578591e+01 0.000000000000e+00 
        </DataArray>
        <DataArray type="Float64" Name="SATURATION1" format="ascii">
          4.545259079631e-01 4.545259079631e-01 4.545259079631e-01 4.545259079631e-01 4.545259079631e-01 4.545259079631e-01 4.545259079631e-01 4.545259079631e-01 4.545259079631e-01 4.545259079631e-01 4.545259079631e-01 4.545259079631e-01 4.545259079631e-01 4.545259079631e-01 4.545259079631e-01 4.545259079631e-01 4.545259079631e-01 4.545259079631e-01 4.545259079631e-01 4.545259079631e-01 4.545259079631e-01 4.545259079631e-01 4.545259079631e-01 4.545259079631e-01 4.545259079631e-01 4.545259079631e-01 4.545259079631e-01 4.545259079631e-01 4.545259079631e-01 4.545259079631e-01 4.545259079631e-01 4.545259079631e-01 4.545259079631e-01 4.545259079631e-01 4.545259079631e-01 4.545259079631e-01 4.545259079631e-01 4.545259079631e-01 4.545259079631e-01 4.545259079631e-01 4.545259079631e-01 4.545259079631e-01 4.545259079631e-01 4.545259079631e-01 4.545259079631e-01 4.545259079631e-01 4.545259079631e-01 4.545259079631e-01 4.545259079631e-01 4.545259079631e-01 4.545259079631e-01 4.545259079631e-01 4.545259079631e-01 4.545259079631e-01 4.545259079631e-01 4.545259079631e-01 4.545259079631e-01 4.545259079631e-01 4.545259079631e-01 4.545259079631e-01 4.545259079631e-01 4.545259079631e-01 4.545259079631e-01 4.545259079631e-01 4.545259079631e-01 4.545259079631e-01 4.545259079631e-01 4.545259079631e-01 4.545259079631e-01 4.545259079631e-01 4.545259079631e-01 4.545259079631e-01 4.545259079631e-01 4.545259079632e-01 4.545259079636e-01 4.545259079661e-01 4.545259079808e-01 4.545259080668e-01 4.545259085719e-01 4.545259115312e-01 4.545259288443e-01 4.545260299979e-01 4.545266203474e-01 4.545300630738e-01 4.545501323047e-01 4.546670840322e-01 4.553466878161e-01 4.592245590974e-01 4.778918086084e-01 5.646011510588e-01 7.176064861624e-01 7.741319583130e-01 8.224900835810e-01 8.601523605206e-01 8.872187521878e-01 9.080618007781e-01 9.242358844830e-01 9.376953632246e-01 9.483838550039e-01 9.515827129210e-01 9.543121399419e-01 9.568862382699e-01 9.592952249277e-01 9.618006290721e-01 9.643752968475e-01 9.667515358898e-01 9.689776930552e-01 9.710718667498e-01 9.730268724045e-01 9.751499832964e-01 9.772448231458e-01 9.791803039145e-01 9.809869947148e-01 9.826791081973e-01 9.842685170210e-01 9.857597235437e-01 9.872289781726e-01 9.888247971167e-01 9.902846933975e-01 9.916384511124e-01 9.928973175522e-01 9.940708237204e-01 9.951671272868e-01 9.961932722575e-01 9.971553888890e-01 9.980588499315e-01 9.989083944444e-01 9.997531866879e-01 1.000000000000e+00 1.000000000000e+00 1.000000000000e+00 1.000000000000e+00 1.000000000000e+00 1.000000000000e+00 1.000000000000e+00 1.000000000000e+00 1.000000000000e+00 1.000000000000e+00 1.000000000000e+00 1.000000000000e+00 1.000000000000e+00 1.000000000000e+00 1.000000000000e+00 1.000000000000e+00 1.000000000000e+00 1.000000000000e+00 1.000000000000e+00 1.000000000000e+00 1.000000000000e+00 1.000000000000e+00 1.000000000000e+00 1.000000000000e+00 1.000000000000e+00 1.000000000000e+00 1.000000000000e+00 1.000000000000e+00 1.000000000000e+00 1.000000000000e+00 1.000000000000e+00 1.000000000000e+00 1.000000000000e+00 1.000000000000e+00 1.000000000000e+00 1.000000000000e+00 1.000000000000e+00 1.000000000000e+00 1.000000000000e+00 1.000000000000e+00 1.000000000000e+00 1.000000000000e+00 1.000000000000e+00 1.000000000000e+00 1.000000000000e+00 1.000000000000e+00 1.000000000000e+00 1.000000000000e+00 1.000000000000e+00 1.000000000000e+00 1.000000000000e+00 1.000000000000e+00 1.000000000000e+00 1.000000000000e+00 1.000000000000e+00 1.000000000000e+00 1.000000000000e+00 1.000000000000e+00 1.000000000000e+00 1.000000000000e+00 1.000000000000e+00 1.000000000000e+00 1.000000000000e+00 1.000000000000e+00 1.000000000000e+00 1.000000000000e+00 1.000000000000e+00 1.000000000000e+00 1.000000000000e+00 1.000000000000e+00 1.000000000000e+00 1.000000000000e+00 1.000000000000e+00 
        </DataArray>
      </PointData>
      <CellData>
      </CellData>
    </Piece>
  </UnstructuredGrid>
</VTKFile>
