<?xml version="1.0"?>
<!-- Time step: 329 | Time: 3.240000000000e+04 -->
<VTKFile type="UnstructuredGrid" version="0.1" byte_order="LittleEndian">
  <UnstructuredGrid>
    <Piece NumberOfPoints="201" NumberOfCells="200">
      <Points>
        <DataArray type="Float64" NumberOfComponents="3" format="ascii">
          0.000000000000e+00 0.000000000000e+00 0.000000000000e+00
          0.000000000000e+00 0.000000000000e+00 1.000000000000e-02
          0.000000000000e+00 0.000000000000e+00 2.000000000000e-02
          0.000000000000e+00 0.000000000000e+00 3.000000000000e-02
          0.000000000000e+00 0.000000000000e+00 4.000000000000e-02
          0.000000000000e+00 0.000000000000e+00 5.000000000000e-02
          0.000000000000e+00 0.000000000000e+00 6.000000000000e-02
          0.000000000000e+00 0.000000000000e+00 7.000000000000e-02
          0.000000000000e+00 0.000000000000e+00 8.000000000000e-02
          0.000000000000e+00 0.000000000000e+00 9.000000000000e-02
          0.000000000000e+00 0.000000000000e+00 1.000000000000e-01
          0.000000000000e+00 0.000000000000e+00 1.100000000000e-01
          0.000000000000e+00 0.000000000000e+00 1.200000000000e-01
          0.000000000000e+00 0.000000000000e+00 1.300000000000e-01
          0.000000000000e+00 0.000000000000e+00 1.400000000000e-01
          0.000000000000e+00 0.000000000000e+00 1.500000000000e-01
          0.000000000000e+00 0.000000000000e+00 1.600000000000e-01
          0.000000000000e+00 0.000000000000e+00 1.700000000000e-01
          0.000000000000e+00 0.000000000000e+00 1.800000000000e-01
          0.000000000000e+00 0.000000000000e+00 1.900000000000e-01
          0.000000000000e+00 0.000000000000e+00 2.000000000000e-01
          0.000000000000e+00 0.000000000000e+00 2.100000000000e-01
          0.000000000000e+00 0.000000000000e+00 2.200000000000e-01
          0.000000000000e+00 0.000000000000e+00 2.300000000000e-01
          0.000000000000e+00 0.000000000000e+00 2.400000000000e-01
          0.000000000000e+00 0.000000000000e+00 2.500000000000e-01
          0.000000000000e+00 0.000000000000e+00 2.600000000000e-01
          0.000000000000e+00 0.000000000000e+00 2.700000000000e-01
          0.000000000000e+00 0.000000000000e+00 2.800000000000e-01
          0.000000000000e+00 0.000000000000e+00 2.900000000000e-01
          0.000000000000e+00 0.000000000000e+00 3.000000000000e-01
          0.000000000000e+00 0.000000000000e+00 3.100000000000e-01
          0.000000000000e+00 0.000000000000e+00 3.200000000000e-01
          0.000000000000e+00 0.000000000000e+00 3.300000000000e-01
          0.000000000000e+00 0.000000000000e+00 3.400000000000e-01
          0.000000000000e+00 0.000000000000e+00 3.500000000000e-01
          0.000000000000e+00 0.000000000000e+00 3.600000000000e-01
          0.000000000000e+00 0.000000000000e+00 3.700000000000e-01
          0.000000000000e+00 0.000000000000e+00 3.800000000000e-01
          0.000000000000e+00 0.000000000000e+00 3.900000000000e-01
          0.000000000000e+00 0.000000000000e+00 4.000000000000e-01
          0.000000000000e+00 0.000000000000e+00 4.100000000000e-01
          0.000000000000e+00 0.000000000000e+00 4.200000000000e-01
          0.000000000000e+00 0.000000000000e+00 4.300000000000e-01
          0.000000000000e+00 0.000000000000e+00 4.400000000000e-01
          0.000000000000e+00 0.000000000000e+00 4.500000000000e-01
          0.000000000000e+00 0.000000000000e+00 4.600000000000e-01
          0.000000000000e+00 0.000000000000e+00 4.700000000000e-01
          0.000000000000e+00 0.000000000000e+00 4.800000000000e-01
          0.000000000000e+00 0.000000000000e+00 4.900000000000e-01
          0.000000000000e+00 0.000000000000e+00 5.000000000000e-01
          0.000000000000e+00 0.000000000000e+00 5.100000000000e-01
          0.000000000000e+00 0.000000000000e+00 5.200000000000e-01
          0.000000000000e+00 0.000000000000e+00 5.300000000000e-01
          0.000000000000e+00 0.000000000000e+00 5.400000000000e-01
          0.000000000000e+00 0.000000000000e+00 5.500000000000e-01
          0.000000000000e+00 0.000000000000e+00 5.600000000000e-01
          0.000000000000e+00 0.000000000000e+00 5.700000000000e-01
          0.000000000000e+00 0.000000000000e+00 5.800000000000e-01
          0.000000000000e+00 0.000000000000e+00 5.900000000000e-01
          0.000000000000e+00 0.000000000000e+00 6.000000000000e-01
          0.000000000000e+00 0.000000000000e+00 6.100000000000e-01
          0.000000000000e+00 0.000000000000e+00 6.200000000000e-01
          0.000000000000e+00 0.000000000000e+00 6.300000000000e-01
          0.000000000000e+00 0.000000000000e+00 6.400000000000e-01
          0.000000000000e+00 0.000000000000e+00 6.500000000000e-01
          0.000000000000e+00 0.000000000000e+00 6.600000000000e-01
          0.000000000000e+00 0.000000000000e+00 6.700000000000e-01
          0.000000000000e+00 0.000000000000e+00 6.800000000000e-01
          0.000000000000e+00 0.000000000000e+00 6.900000000000e-01
          0.000000000000e+00 0.000000000000e+00 7.000000000000e-01
          0.000000000000e+00 0.000000000000e+00 7.100000000000e-01
          0.000000000000e+00 0.000000000000e+00 7.200000000000e-01
          0.000000000000e+00 0.000000000000e+00 7.300000000000e-01
          0.000000000000e+00 0.000000000000e+00 7.400000000000e-01
          0.000000000000e+00 0.000000000000e+00 7.500000000000e-01
          0.000000000000e+00 0.000000000000e+00 7.600000000000e-01
          0.000000000000e+00 0.000000000000e+00 7.700000000000e-01
          0.000000000000e+00 0.000000000000e+00 7.800000000000e-01
          0.000000000000e+00 0.000000000000e+00 7.900000000000e-01
          0.000000000000e+00 0.000000000000e+00 8.000000000000e-01
          0.000000000000e+00 0.000000000000e+00 8.100000000000e-01
          0.000000000000e+00 0.000000000000e+00 8.200000000000e-01
          0.000000000000e+00 0.000000000000e+00 8.300000000000e-01
          0.000000000000e+00 0.000000000000e+00 8.400000000000e-01
          0.000000000000e+00 0.000000000000e+00 8.500000000000e-01
          0.000000000000e+00 0.000000000000e+00 8.600000000000e-01
          0.000000000000e+00 0.000000000000e+00 8.700000000000e-01
          0.000000000000e+00 0.000000000000e+00 8.800000000000e-01
          0.000000000000e+00 0.000000000000e+00 8.900000000000e-01
          0.000000000000e+00 0.000000000000e+00 9.000000000000e-01
          0.000000000000e+00 0.000000000000e+00 9.100000000000e-01
          0.000000000000e+00 0.000000000000e+00 9.200000000000e-01
          0.000000000000e+00 0.000000000000e+00 9.300000000000e-01
          0.000000000000e+00 0.000000000000e+00 9.400000000000e-01
          0.000000000000e+00 0.000000000000e+00 9.500000000000e-01
          0.000000000000e+00 0.000000000000e+00 9.600000000000e-01
          0.000000000000e+00 0.000000000000e+00 9.700000000000e-01
          0.000000000000e+00 0.000000000000e+00 9.800000000000e-01
          0.000000000000e+00 0.000000000000e+00 9.900000000000e-01
          0.000000000000e+00 0.000000000000e+00 1.000000000000e+00
          0.000000000000e+00 0.000000000000e+00 1.010000000000e+00
          0.000000000000e+00 0.000000000000e+00 1.020000000000e+00
          0.000000000000e+00 0.000000000000e+00 1.030000000000e+00
          0.000000000000e+00 0.000000000000e+00 1.040000000000e+00
          0.000000000000e+00 0.000000000000e+00 1.050000000000e+00
          0.000000000000e+00 0.000000000000e+00 1.060000000000e+00
          0.000000000000e+00 0.000000000000e+00 1.070000000000e+00
          0.000000000000e+00 0.000000000000e+00 1.080000000000e+00
          0.000000000000e+00 0.000000000000e+00 1.090000000000e+00
          0.000000000000e+00 0.000000000000e+00 1.100000000000e+00
          0.000000000000e+00 0.000000000000e+00 1.110000000000e+00
          0.000000000000e+00 0.000000000000e+00 1.120000000000e+00
          0.000000000000e+00 0.000000000000e+00 1.130000000000e+00
          0.000000000000e+00 0.000000000000e+00 1.140000000000e+00
          0.000000000000e+00 0.000000000000e+00 1.150000000000e+00
          0.000000000000e+00 0.000000000000e+00 1.160000000000e+00
          0.000000000000e+00 0.000000000000e+00 1.170000000000e+00
          0.000000000000e+00 0.000000000000e+00 1.180000000000e+00
          0.000000000000e+00 0.000000000000e+00 1.190000000000e+00
          0.000000000000e+00 0.000000000000e+00 1.200000000000e+00
          0.000000000000e+00 0.000000000000e+00 1.210000000000e+00
          0.000000000000e+00 0.000000000000e+00 1.220000000000e+00
          0.000000000000e+00 0.000000000000e+00 1.230000000000e+00
          0.000000000000e+00 0.000000000000e+00 1.240000000000e+00
          0.000000000000e+00 0.000000000000e+00 1.250000000000e+00
          0.000000000000e+00 0.000000000000e+00 1.260000000000e+00
          0.000000000000e+00 0.000000000000e+00 1.270000000000e+00
          0.000000000000e+00 0.000000000000e+00 1.280000000000e+00
          0.000000000000e+00 0.000000000000e+00 1.290000000000e+00
          0.000000000000e+00 0.000000000000e+00 1.300000000000e+00
          0.000000000000e+00 0.000000000000e+00 1.310000000000e+00
          0.000000000000e+00 0.000000000000e+00 1.320000000000e+00
          0.000000000000e+00 0.000000000000e+00 1.330000000000e+00
          0.000000000000e+00 0.000000000000e+00 1.340000000000e+00
          0.000000000000e+00 0.000000000000e+00 1.350000000000e+00
          0.000000000000e+00 0.000000000000e+00 1.360000000000e+00
          0.000000000000e+00 0.000000000000e+00 1.370000000000e+00
          0.000000000000e+00 0.000000000000e+00 1.380000000000e+00
          0.000000000000e+00 0.000000000000e+00 1.390000000000e+00
          0.000000000000e+00 0.000000000000e+00 1.400000000000e+00
          0.000000000000e+00 0.000000000000e+00 1.410000000000e+00
          0.000000000000e+00 0.000000000000e+00 1.420000000000e+00
          0.000000000000e+00 0.000000000000e+00 1.430000000000e+00
          0.000000000000e+00 0.000000000000e+00 1.440000000000e+00
          0.000000000000e+00 0.000000000000e+00 1.450000000000e+00
          0.000000000000e+00 0.000000000000e+00 1.460000000000e+00
          0.000000000000e+00 0.000000000000e+00 1.470000000000e+00
          0.000000000000e+00 0.000000000000e+00 1.480000000000e+00
          0.000000000000e+00 0.000000000000e+00 1.490000000000e+00
          0.000000000000e+00 0.000000000000e+00 1.500000000000e+00
          0.000000000000e+00 0.000000000000e+00 1.510000000000e+00
          0.000000000000e+00 0.000000000000e+00 1.520000000000e+00
          0.000000000000e+00 0.000000000000e+00 1.530000000000e+00
          0.000000000000e+00 0.000000000000e+00 1.540000000000e+00
          0.000000000000e+00 0.000000000000e+00 1.550000000000e+00
          0.000000000000e+00 0.000000000000e+00 1.560000000000e+00
          0.000000000000e+00 0.000000000000e+00 1.570000000000e+00
          0.000000000000e+00 0.000000000000e+00 1.580000000000e+00
          0.000000000000e+00 0.000000000000e+00 1.590000000000e+00
          0.000000000000e+00 0.000000000000e+00 1.600000000000e+00
          0.000000000000e+00 0.000000000000e+00 1.610000000000e+00
          0.000000000000e+00 0.000000000000e+00 1.620000000000e+00
          0.000000000000e+00 0.000000000000e+00 1.630000000000e+00
          0.000000000000e+00 0.000000000000e+00 1.640000000000e+00
          0.000000000000e+00 0.000000000000e+00 1.650000000000e+00
          0.000000000000e+00 0.000000000000e+00 1.660000000000e+00
          0.000000000000e+00 0.000000000000e+00 1.670000000000e+00
          0.000000000000e+00 0.000000000000e+00 1.680000000000e+00
          0.000000000000e+00 0.000000000000e+00 1.690000000000e+00
          0.000000000000e+00 0.000000000000e+00 1.700000000000e+00
          0.000000000000e+00 0.000000000000e+00 1.710000000000e+00
          0.000000000000e+00 0.000000000000e+00 1.720000000000e+00
          0.000000000000e+00 0.000000000000e+00 1.730000000000e+00
          0.000000000000e+00 0.000000000000e+00 1.740000000000e+00
          0.000000000000e+00 0.000000000000e+00 1.750000000000e+00
          0.000000000000e+00 0.000000000000e+00 1.760000000000e+00
          0.000000000000e+00 0.000000000000e+00 1.770000000000e+00
          0.000000000000e+00 0.000000000000e+00 1.780000000000e+00
          0.000000000000e+00 0.000000000000e+00 1.790000000000e+00
          0.000000000000e+00 0.000000000000e+00 1.800000000000e+00
          0.000000000000e+00 0.000000000000e+00 1.810000000000e+00
          0.000000000000e+00 0.000000000000e+00 1.820000000000e+00
          0.000000000000e+00 0.000000000000e+00 1.830000000000e+00
          0.000000000000e+00 0.000000000000e+00 1.840000000000e+00
          0.000000000000e+00 0.000000000000e+00 1.850000000000e+00
          0.000000000000e+00 0.000000000000e+00 1.860000000000e+00
          0.000000000000e+00 0.000000000000e+00 1.870000000000e+00
          0.000000000000e+00 0.000000000000e+00 1.880000000000e+00
          0.000000000000e+00 0.000000000000e+00 1.890000000000e+00
          0.000000000000e+00 0.000000000000e+00 1.900000000000e+00
          0.000000000000e+00 0.000000000000e+00 1.910000000000e+00
          0.000000000000e+00 0.000000000000e+00 1.920000000000e+00
          0.000000000000e+00 0.000000000000e+00 1.930000000000e+00
          0.000000000000e+00 0.000000000000e+00 1.940000000000e+00
          0.000000000000e+00 0.000000000000e+00 1.950000000000e+00
          0.000000000000e+00 0.000000000000e+00 1.960000000000e+00
          0.000000000000e+00 0.000000000000e+00 1.970000000000e+00
          0.000000000000e+00 0.000000000000e+00 1.980000000000e+00
          0.000000000000e+00 0.000000000000e+00 1.990000000000e+00
          0.000000000000e+00 0.000000000000e+00 2.000000000000e+00
        </DataArray>
      </Points>
      <Cells>
        <DataArray type="Int64" Name="connectivity" format="ascii">
          0 1 
          1 2 
          2 3 
          3 4 
          4 5 
          5 6 
          6 7 
          7 8 
          8 9 
          9 10 
          10 11 
          11 12 
          12 13 
          13 14 
          14 15 
          15 16 
          16 17 
          17 18 
          18 19 
          19 20 
          20 21 
          21 22 
          22 23 
          23 24 
          24 25 
          25 26 
          26 27 
          27 28 
          28 29 
          29 30 
          30 31 
          31 32 
          32 33 
          33 34 
          34 35 
          35 36 
          36 37 
          37 38 
          38 39 
          39 40 
          40 41 
          41 42 
          42 43 
          43 44 
          44 45 
          45 46 
          46 47 
          47 48 
          48 49 
          49 50 
          50 51 
          51 52 
          52 53 
          53 54 
          54 55 
          55 56 
          56 57 
          57 58 
          58 59 
          59 60 
          60 61 
          61 62 
          62 63 
          63 64 
          64 65 
          65 66 
          66 67 
          67 68 
          68 69 
          69 70 
          70 71 
          71 72 
          72 73 
          73 74 
          74 75 
          75 76 
          76 77 
          77 78 
          78 79 
          79 80 
          80 81 
          81 82 
          82 83 
          83 84 
          84 85 
          85 86 
          86 87 
          87 88 
          88 89 
          89 90 
          90 91 
          91 92 
          92 93 
          93 94 
          94 95 
          95 96 
          96 97 
          97 98 
          98 99 
          99 100 
          100 101 
          101 102 
          102 103 
          103 104 
          104 105 
          105 106 
          106 107 
          107 108 
          108 109 
          109 110 
          110 111 
          111 112 
          112 113 
          113 114 
          114 115 
          115 116 
          116 117 
          117 118 
          118 119 
          119 120 
          120 121 
          121 122 
          122 123 
          123 124 
          124 125 
          125 126 
          126 127 
          127 128 
          128 129 
          129 130 
          130 131 
          131 132 
          132 133 
          133 134 
          134 135 
          135 136 
          136 137 
          137 138 
          138 139 
          139 140 
          140 141 
          141 142 
          142 143 
          143 144 
          144 145 
          145 146 
          146 147 
          147 148 
          148 149 
          149 150 
          150 151 
          151 152 
          152 153 
          153 154 
          154 155 
          155 156 
          156 157 
          157 158 
          158 159 
          159 160 
          160 161 
          161 162 
          162 163 
          163 164 
          164 165 
          165 166 
          166 167 
          167 168 
          168 169 
          169 170 
          170 171 
          171 172 
          172 173 
          173 174 
          174 175 
          175 176 
          176 177 
          177 178 
          178 179 
          179 180 
          180 181 
          181 182 
          182 183 
          183 184 
          184 185 
          185 186 
          186 187 
          187 188 
          188 189 
          189 190 
          190 191 
          191 192 
          192 193 
          193 194 
          194 195 
          195 196 
          196 197 
          197 198 
          198 199 
          199 200 
        </DataArray>
        <DataArray type="Int64" Name="offsets" format="ascii">
          2 4 6 8 10 12 14 16 18 20 22 24 26 28 30 32 34 36 38 40 42 44 46 48 50 52 54 56 58 60 62 64 66 68 70 72 74 76 78 80 82 84 86 88 90 92 94 96 98 100 102 104 106 108 110 112 114 116 118 120 122 124 126 128 130 132 134 136 138 140 142 144 146 148 150 152 154 156 158 160 162 164 166 168 170 172 174 176 178 180 182 184 186 188 190 192 194 196 198 200 202 204 206 208 210 212 214 216 218 220 222 224 226 228 230 232 234 236 238 240 242 244 246 248 250 252 254 256 258 260 262 264 266 268 270 272 274 276 278 280 282 284 286 288 290 292 294 296 298 300 302 304 306 308 310 312 314 316 318 320 322 324 326 328 330 332 334 336 338 340 342 344 346 348 350 352 354 356 358 360 362 364 366 368 370 372 374 376 378 380 382 384 386 388 390 392 394 396 398 400 
        </DataArray>
        <DataArray type="UInt8" Name="types" format="ascii">
          3 3 3 3 3 3 3 3 3 3 3 3 3 3 3 3 3 3 3 3 3 3 3 3 3 3 3 3 3 3 3 3 3 3 3 3 3 3 3 3 3 3 3 3 3 3 3 3 3 3 3 3 3 3 3 3 3 3 3 3 3 3 3 3 3 3 3 3 3 3 3 3 3 3 3 3 3 3 3 3 3 3 3 3 3 3 3 3 3 3 3 3 3 3 3 3 3 3 3 3 3 3 3 3 3 3 3 3 3 3 3 3 3 3 3 3 3 3 3 3 3 3 3 3 3 3 3 3 3 3 3 3 3 3 3 3 3 3 3 3 3 3 3 3 3 3 3 3 3 3 3 3 3 3 3 3 3 3 3 3 3 3 3 3 3 3 3 3 3 3 3 3 3 3 3 3 3 3 3 3 3 3 3 3 3 3 3 3 3 3 3 3 3 3 3 3 3 3 3 3 
        </DataArray>
      </Cells>
      <PointData Scalars="PRESSURE1">
        <DataArray type="Float64" Name="PRESSURE1" format="ascii">
          -2.150000000000e+04 -2.150000000000e+04 -2.150000000000e+04 -2.150000000000e+04 -2.150000000000e+04 -2.150000000000e+04 -2.150000000000e+04 -2.150000000000e+04 -2.150000000000e+04 -2.150000000000e+04 -2.150000000000e+04 -2.150000000000e+04 -2.150000000000e+04 -2.150000000000e+04 -2.150000000000e+04 -2.150000000000e+04 -2.150000000000e+04 -2.150000000000e+04 -2.150000000000e+04 -2.150000000000e+04 -2.150000000000e+04 -2.150000000000e+04 -2.150000000000e+04 -2.150000000000e+04 -2.150000000000e+04 -2.150000000000e+04 -2.150000000000e+04 -2.150000000000e+04 -2.150000000000e+04 -2.150000000000e+04 -2.150000000000e+04 -2.150000000000e+04 -2.150000000000e+04 -2.150000000000e+04 -2.150000000000e+04 -2.150000000000e+04 -2.150000000000e+04 -2.150000000000e+04 -2.150000000000e+04 -2.150000000000e+04 -2.150000000000e+04 -2.150000000000e+04 -2.150000000000e+04 -2.150000000000e+04 -2.150000000000e+04 -2.150000000000e+04 -2.150000000000e+04 -2.150000000000e+04 -2.150000000000e+04 -2.150000000000e+04 -2.150000000000e+04 -2.150000000000e+04 -2.150000000000e+04 -2.150000000000e+04 -2.150000000000e+04 -2.150000000000e+04 -2.150000000000e+04 -2.150000000000e+04 -2.150000000000e+04 -2.150000000000e+04 -2.150000000000e+04 -2.150000000000e+04 -2.150000000000e+04 -2.150000000000e+04 -2.150000000000e+04 -2.150000000000e+04 -2.150000000000e+04 -2.150000000000e+04 -2.150000000000e+04 -2.150000000000e+04 -2.150000000000e+04 -2.150000000000e+04 -2.150000000000e+04 -2.150000000000e+04 -2.150000000000e+04 -2.150000000000e+04 -2.150000000000e+04 -2.150000000000e+04 -2.150000000000e+04 -2.150000000000e+04 -2.149999999999e+04 -2.149999999997e+04 -2.149999999984e+04 -2.149999999916e+04 -2.149999999551e+04 -2.149999997588e+04 -2.149999987068e+04 -2.149999930709e+04 -2.149999629028e+04 -2.149998015409e+04 -2.149989390921e+04 -2.149943327577e+04 -2.149697490342e+04 -2.148387075616e+04 -2.141429128440e+04 -2.105132140583e+04 -1.930318974135e+04 -1.272592691743e+04 -6.852544273201e+03 -5.339025764124e+03 -4.376638458597e+03 -3.832105014178e+03 -3.480719808641e+03 -3.234348934749e+03 -3.051242283846e+03 -2.913182848072e+03 -2.799139999974e+03 -2.693393840733e+03 -2.593928015426e+03 -2.500106986940e+03 -2.411516995853e+03 -2.329056374166e+03 -2.252307637697e+03 -2.180504210955e+03 -2.113032552621e+03 -2.049392588735e+03 -1.989656726316e+03 -1.934355446680e+03 -1.882964048356e+03 -1.835014781518e+03 -1.790123535213e+03 -1.747970285114e+03 -1.708285056824e+03 -1.671114370726e+03 -1.636832636583e+03 -1.605133988665e+03 -1.575729753096e+03 -1.548377974045e+03 -1.522873524001e+03 -1.499040754072e+03 -1.476727929537e+03 -1.455802947785e+03 -1.436149995319e+03 -1.417666904453e+03 -1.399615370420e+03 -1.381432498304e+03 -1.363119660401e+03 -1.344678245753e+03 -1.326109662614e+03 -1.307415340261e+03 -1.288596730299e+03 -1.269655307576e+03 -1.250592570798e+03 -1.231410042921e+03 -1.212109271360e+03 -1.192691828063e+03 -1.173159309481e+03 -1.153513336460e+03 -1.133755554065e+03 -1.113887631362e+03 -1.093911261154e+03 -1.073828159697e+03 -1.053640066385e+03 -1.033348743426e+03 -1.012955975492e+03 -9.924635693644e+02 -9.718733535706e+02 -9.511871780068e+02 -9.304069135575e+02 -9.095344517071e+02 -8.885717041457e+02 -8.675206023698e+02 -8.463830972770e+02 -8.251611587564e+02 -8.038567752739e+02 -7.824719534523e+02 -7.610087176473e+02 -7.394691095185e+02 -7.178551875951e+02 -6.961690268385e+02 -6.744127181988e+02 -6.525883681675e+02 -6.306980983256e+02 -6.087440448874e+02 -5.867283582394e+02 -5.646532024757e+02 -5.425207549288e+02 -5.203332056958e+02 -4.980927571616e+02 -4.758016235174e+02 -4.534620302761e+02 -4.310762137830e+02 -4.086464207243e+02 -3.861749076313e+02 -3.636639403816e+02 -3.411157936973e+02 -3.185327506405e+02 -2.959171021051e+02 -2.732711463073e+02 -2.505971882727e+02 -2.278975393212e+02 -2.051745165505e+02 -1.824304423164e+02 -1.596676437126e+02 -1.368884520483e+02 -1.140952023240e+02 -9.129023270714e+01 -6.847588400518e+01 -4.565449913926e+01 -2.282842261613e+01 0.000000000000e+00 
        </DataArray>
        <DataArray type="Float64" Name="SATURATION1" format="ascii">
          4.545259079631e-01 4.545259079631e-01 4.545259079631e-01 4.545259079631e-01 4.545259079631e-01 4.545259079631e-01 4.545259079631e-01 4.545259079631e-01 4.545259079631e-01 4.545259079631e-01 4.545259079631e-01 4.545259079631e-01 4.545259079631e-01 4.545259079631e-01 4.545259079631e-01 4.545259079631e-01 4.545259079631e-01 4.545259079631e-01 4.545259079631e-01 4.545259079631e-01 4.545259079631e-01 4.545259079631e-01 4.545259079631e-01 4.545259079631e-01 4.545259079631e-01 4.545259079631e-01 4.545259079631e-01 4.545259079631e-01 4.545259079631e-01 4.545259079631e-01 4.545259079631e-01 4.545259079631e-01 4.545259079631e-01 4.545259079631e-01 4.545259079631e-01 4.545259079631e-01 4.545259079631e-01 4.545259079631e-01 4.545259079631e-01 4.545259079631e-01 4.545259079631e-01 4.545259079631e-01 4.545259079631e-01 4.545259079631e-01 4.545259079631e-01 4.545259079631e-01 4.545259079631e-01 4.545259079631e-01 4.545259079631e-01 4.545259079631e-01 4.545259079631e-01 4.545259079631e-01 4.545259079631e-01 4.545259079631e-01 4.545259079631e-01 4.545259079631e-01 4.545259079631e-01 4.545259079631e-01 4.545259079631e-01 4.545259079631e-01 4.545259079631e-01 4.545259079631e-01 4.545259079631e-01 4.545259079631e-01 4.545259079631e-01 4.545259079631e-01 4.545259079631e-01 4.545259079631e-01 4.545259079631e-01 4.545259079631e-01 4.545259079631e-01 4.545259079631e-01 4.545259079631e-01 4.545259079631e-01 4.545259079631e-01 4.545259079631e-01 4.545259079631e-01 4.545259079631e-01 4.545259079631e-01 4.545259079631e-01 4.545259079632e-01 4.545259079635e-01 4.545259079650e-01 4.545259079733e-01 4.545259080180e-01 4.545259082574e-01 4.545259095412e-01 4.545259164184e-01 4.545259532316e-01 4.545261501361e-01 4.545272025535e-01 4.545328235088e-01 4.545628222016e-01 4.547227277135e-01 4.555717826598e-01 4.600009822927e-01 4.794573245459e-01 5.716317738200e-01 7.368304510877e-01 7.944025874892e-01 8.447583830971e-01 8.784677130358e-01 9.026739568326e-01 9.209329942805e-01 9.359266805248e-01 9.475946592131e-01 9.515243893751e-01 9.543024104097e-01 9.569802893763e-01 9.594795859984e-01 9.621244943979e-01 9.647814580971e-01 9.672339769813e-01 9.695284676549e-01 9.716845359348e-01 9.737215707867e-01 9.760171796905e-01 9.781392146246e-01 9.801112185868e-01 9.819511401938e-01 9.836737186499e-01 9.852912340110e-01 9.868112279694e-01 9.885211582006e-01 9.901007893565e-01 9.915613972605e-01 9.929162834056e-01 9.941765966144e-01 9.953517887367e-01 9.964499533090e-01 9.974780819522e-01 9.984422616805e-01 9.993639846111e-01 1.000000000000e+00 1.000000000000e+00 1.000000000000e+00 1.000000000000e+00 1.000000000000e+00 1.000000000000e+00 1.000000000000e+00 1.000000000000e+00 1.000000000000e+00 1.000000000000e+00 1.000000000000e+00 1.000000000000e+00 1.000000000000e+00 1.000000000000e+00 1.000000000000e+00 1.000000000000e+00 1.000000000000e+00 1.000000000000e+00 1.000000000000e+00 1.000000000000e+00 1.000000000000e+00 1.000000000000e+00 1.000000000000e+00 1.000000000000e+00 1.000000000000e+00 1.000000000000e+00 1.000000000000e+00 1.000000000000e+00 1.000000000000e+00 1.000000000000e+00 1.000000000000e+00 1.000000000000e+00 1.000000000000e+00 1.000000000000e+00 1.000000000000e+00 1.000000000000e+00 1.000000000000e+00 1.000000000000e+00 1.000000000000e+00 1.000000000000e+00 1.000000000000e+00 1.000000000000e+00 1.000000000000e+00 1.000000000000e+00 1.000000000000e+00 1.000000000000e+00 1.000000000000e+00 1.000000000000e+00 1.000000000000e+00 1.000000000000e+00 1.000000000000e+00 1.000000000000e+00 1.000000000000e+00 1.000000000000e+00 1.000000000000e+00 1.000000000000e+00 1.000000000000e+00 1.000000000000e+00 1.000000000000e+00 1.000000000000e+00 1.000000000000e+00 1.000000000000e+00 1.000000000000e+00 1.000000000000e+00 1.000000000000e+00 1.000000000000e+00 1.000000000000e+00 1.000000000000e+00 
        </DataArray>
      </PointData>
      <CellData>
      </CellData>
    </Piece>
  </UnstructuredGrid>
</VTKFile>
