<?xml version="1.0"?>
<!-- Time step: 41 | Time: 3.600000000000e+03 -->
<VTKFile type="UnstructuredGrid" version="0.1" byte_order="LittleEndian">
  <UnstructuredGrid>
    <Piece NumberOfPoints="201" NumberOfCells="200">
      <Points>
        <DataArray type="Float64" NumberOfComponents="3" format="ascii">
          0.000000000000e+00 0.000000000000e+00 0.000000000000e+00
          0.000000000000e+00 0.000000000000e+00 1.000000000000e-02
          0.000000000000e+00 0.000000000000e+00 2.000000000000e-02
          0.000000000000e+00 0.000000000000e+00 3.000000000000e-02
          0.000000000000e+00 0.000000000000e+00 4.000000000000e-02
          0.000000000000e+00 0.000000000000e+00 5.000000000000e-02
          0.000000000000e+00 0.000000000000e+00 6.000000000000e-02
          0.000000000000e+00 0.000000000000e+00 7.000000000000e-02
          0.000000000000e+00 0.000000000000e+00 8.000000000000e-02
          0.000000000000e+00 0.000000000000e+00 9.000000000000e-02
          0.000000000000e+00 0.000000000000e+00 1.000000000000e-01
          0.000000000000e+00 0.000000000000e+00 1.100000000000e-01
          0.000000000000e+00 0.000000000000e+00 1.200000000000e-01
          0.000000000000e+00 0.000000000000e+00 1.300000000000e-01
          0.000000000000e+00 0.000000000000e+00 1.400000000000e-01
          0.000000000000e+00 0.000000000000e+00 1.500000000000e-01
          0.000000000000e+00 0.000000000000e+00 1.600000000000e-01
          0.000000000000e+00 0.000000000000e+00 1.700000000000e-01
          0.000000000000e+00 0.000000000000e+00 1.800000000000e-01
          0.000000000000e+00 0.000000000000e+00 1.900000000000e-01
          0.000000000000e+00 0.000000000000e+00 2.000000000000e-01
          0.000000000000e+00 0.000000000000e+00 2.100000000000e-01
          0.000000000000e+00 0.000000000000e+00 2.200000000000e-01
          0.000000000000e+00 0.000000000000e+00 2.300000000000e-01
          0.000000000000e+00 0.000000000000e+00 2.400000000000e-01
          0.000000000000e+00 0.000000000000e+00 2.500000000000e-01
          0.000000000000e+00 0.000000000000e+00 2.600000000000e-01
          0.000000000000e+00 0.000000000000e+00 2.700000000000e-01
          0.000000000000e+00 0.000000000000e+00 2.800000000000e-01
          0.000000000000e+00 0.000000000000e+00 2.900000000000e-01
          0.000000000000e+00 0.000000000000e+00 3.000000000000e-01
          0.000000000000e+00 0.000000000000e+00 3.100000000000e-01
          0.000000000000e+00 0.000000000000e+00 3.200000000000e-01
          0.000000000000e+00 0.000000000000e+00 3.300000000000e-01
          0.000000000000e+00 0.000000000000e+00 3.400000000000e-01
          0.000000000000e+00 0.000000000000e+00 3.500000000000e-01
          0.000000000000e+00 0.000000000000e+00 3.600000000000e-01
          0.000000000000e+00 0.000000000000e+00 3.700000000000e-01
          0.000000000000e+00 0.000000000000e+00 3.800000000000e-01
          0.000000000000e+00 0.000000000000e+00 3.900000000000e-01
          0.000000000000e+00 0.000000000000e+00 4.000000000000e-01
          0.000000000000e+00 0.000000000000e+00 4.100000000000e-01
          0.000000000000e+00 0.000000000000e+00 4.200000000000e-01
          0.000000000000e+00 0.000000000000e+00 4.300000000000e-01
          0.000000000000e+00 0.000000000000e+00 4.400000000000e-01
          0.000000000000e+00 0.000000000000e+00 4.500000000000e-01
          0.000000000000e+00 0.000000000000e+00 4.600000000000e-01
          0.000000000000e+00 0.000000000000e+00 4.700000000000e-01
          0.000000000000e+00 0.000000000000e+00 4.800000000000e-01
          0.000000000000e+00 0.000000000000e+00 4.900000000000e-01
          0.000000000000e+00 0.000000000000e+00 5.000000000000e-01
          0.000000000000e+00 0.000000000000e+00 5.100000000000e-01
          0.000000000000e+00 0.000000000000e+00 5.200000000000e-01
          0.000000000000e+00 0.000000000000e+00 5.300000000000e-01
          0.000000000000e+00 0.000000000000e+00 5.400000000000e-01
          0.000000000000e+00 0.000000000000e+00 5.500000000000e-01
          0.000000000000e+00 0.000000000000e+00 5.600000000000e-01
          0.000000000000e+00 0.000000000000e+00 5.700000000000e-01
          0.000000000000e+00 0.000000000000e+00 5.800000000000e-01
          0.000000000000e+00 0.000000000000e+00 5.900000000000e-01
          0.000000000000e+00 0.000000000000e+00 6.000000000000e-01
          0.000000000000e+00 0.000000000000e+00 6.100000000000e-01
          0.000000000000e+00 0.000000000000e+00 6.200000000000e-01
          0.000000000000e+00 0.000000000000e+00 6.300000000000e-01
          0.000000000000e+00 0.000000000000e+00 6.400000000000e-01
          0.000000000000e+00 0.000000000000e+00 6.500000000000e-01
          0.000000000000e+00 0.000000000000e+00 6.600000000000e-01
          0.000000000000e+00 0.000000000000e+00 6.700000000000e-01
          0.000000000000e+00 0.000000000000e+00 6.800000000000e-01
          0.000000000000e+00 0.000000000000e+00 6.900000000000e-01
          0.000000000000e+00 0.000000000000e+00 7.000000000000e-01
          0.000000000000e+00 0.000000000000e+00 7.100000000000e-01
          0.000000000000e+00 0.000000000000e+00 7.200000000000e-01
          0.000000000000e+00 0.000000000000e+00 7.300000000000e-01
          0.000000000000e+00 0.000000000000e+00 7.400000000000e-01
          0.000000000000e+00 0.000000000000e+00 7.500000000000e-01
          0.000000000000e+00 0.000000000000e+00 7.600000000000e-01
          0.000000000000e+00 0.000000000000e+00 7.700000000000e-01
          0.000000000000e+00 0.000000000000e+00 7.800000000000e-01
          0.000000000000e+00 0.000000000000e+00 7.900000000000e-01
          0.000000000000e+00 0.000000000000e+00 8.000000000000e-01
          0.000000000000e+00 0.000000000000e+00 8.100000000000e-01
          0.000000000000e+00 0.000000000000e+00 8.200000000000e-01
          0.000000000000e+00 0.000000000000e+00 8.300000000000e-01
          0.000000000000e+00 0.000000000000e+00 8.400000000000e-01
          0.000000000000e+00 0.000000000000e+00 8.500000000000e-01
          0.000000000000e+00 0.000000000000e+00 8.600000000000e-01
          0.000000000000e+00 0.000000000000e+00 8.700000000000e-01
          0.000000000000e+00 0.000000000000e+00 8.800000000000e-01
          0.000000000000e+00 0.000000000000e+00 8.900000000000e-01
          0.000000000000e+00 0.000000000000e+00 9.000000000000e-01
          0.000000000000e+00 0.000000000000e+00 9.100000000000e-01
          0.000000000000e+00 0.000000000000e+00 9.200000000000e-01
          0.000000000000e+00 0.000000000000e+00 9.300000000000e-01
          0.000000000000e+00 0.000000000000e+00 9.400000000000e-01
          0.000000000000e+00 0.000000000000e+00 9.500000000000e-01
          0.000000000000e+00 0.000000000000e+00 9.600000000000e-01
          0.000000000000e+00 0.000000000000e+00 9.700000000000e-01
          0.000000000000e+00 0.000000000000e+00 9.800000000000e-01
          0.000000000000e+00 0.000000000000e+00 9.900000000000e-01
          0.000000000000e+00 0.000000000000e+00 1.000000000000e+00
          0.000000000000e+00 0.000000000000e+00 1.010000000000e+00
          0.000000000000e+00 0.000000000000e+00 1.020000000000e+00
          0.000000000000e+00 0.000000000000e+00 1.030000000000e+00
          0.000000000000e+00 0.000000000000e+00 1.040000000000e+00
          0.000000000000e+00 0.000000000000e+00 1.050000000000e+00
          0.000000000000e+00 0.000000000000e+00 1.060000000000e+00
          0.000000000000e+00 0.000000000000e+00 1.070000000000e+00
          0.000000000000e+00 0.000000000000e+00 1.080000000000e+00
          0.000000000000e+00 0.000000000000e+00 1.090000000000e+00
          0.000000000000e+00 0.000000000000e+00 1.100000000000e+00
          0.000000000000e+00 0.000000000000e+00 1.110000000000e+00
          0.000000000000e+00 0.000000000000e+00 1.120000000000e+00
          0.000000000000e+00 0.000000000000e+00 1.130000000000e+00
          0.000000000000e+00 0.000000000000e+00 1.140000000000e+00
          0.000000000000e+00 0.000000000000e+00 1.150000000000e+00
          0.000000000000e+00 0.000000000000e+00 1.160000000000e+00
          0.000000000000e+00 0.000000000000e+00 1.170000000000e+00
          0.000000000000e+00 0.000000000000e+00 1.180000000000e+00
          0.000000000000e+00 0.000000000000e+00 1.190000000000e+00
          0.000000000000e+00 0.000000000000e+00 1.200000000000e+00
          0.000000000000e+00 0.000000000000e+00 1.210000000000e+00
          0.000000000000e+00 0.000000000000e+00 1.220000000000e+00
          0.000000000000e+00 0.000000000000e+00 1.230000000000e+00
          0.000000000000e+00 0.000000000000e+00 1.240000000000e+00
          0.000000000000e+00 0.000000000000e+00 1.250000000000e+00
          0.000000000000e+00 0.000000000000e+00 1.260000000000e+00
          0.000000000000e+00 0.000000000000e+00 1.270000000000e+00
          0.000000000000e+00 0.000000000000e+00 1.280000000000e+00
          0.000000000000e+00 0.000000000000e+00 1.290000000000e+00
          0.000000000000e+00 0.000000000000e+00 1.300000000000e+00
          0.000000000000e+00 0.000000000000e+00 1.310000000000e+00
          0.000000000000e+00 0.000000000000e+00 1.320000000000e+00
          0.000000000000e+00 0.000000000000e+00 1.330000000000e+00
          0.000000000000e+00 0.000000000000e+00 1.340000000000e+00
          0.000000000000e+00 0.000000000000e+00 1.350000000000e+00
          0.000000000000e+00 0.000000000000e+00 1.360000000000e+00
          0.000000000000e+00 0.000000000000e+00 1.370000000000e+00
          0.000000000000e+00 0.000000000000e+00 1.380000000000e+00
          0.000000000000e+00 0.000000000000e+00 1.390000000000e+00
          0.000000000000e+00 0.000000000000e+00 1.400000000000e+00
          0.000000000000e+00 0.000000000000e+00 1.410000000000e+00
          0.000000000000e+00 0.000000000000e+00 1.420000000000e+00
          0.000000000000e+00 0.000000000000e+00 1.430000000000e+00
          0.000000000000e+00 0.000000000000e+00 1.440000000000e+00
          0.000000000000e+00 0.000000000000e+00 1.450000000000e+00
          0.000000000000e+00 0.000000000000e+00 1.460000000000e+00
          0.000000000000e+00 0.000000000000e+00 1.470000000000e+00
          0.000000000000e+00 0.000000000000e+00 1.480000000000e+00
          0.000000000000e+00 0.000000000000e+00 1.490000000000e+00
          0.000000000000e+00 0.000000000000e+00 1.500000000000e+00
          0.000000000000e+00 0.000000000000e+00 1.510000000000e+00
          0.000000000000e+00 0.000000000000e+00 1.520000000000e+00
          0.000000000000e+00 0.000000000000e+00 1.530000000000e+00
          0.000000000000e+00 0.000000000000e+00 1.540000000000e+00
          0.000000000000e+00 0.000000000000e+00 1.550000000000e+00
          0.000000000000e+00 0.000000000000e+00 1.560000000000e+00
          0.000000000000e+00 0.000000000000e+00 1.570000000000e+00
          0.000000000000e+00 0.000000000000e+00 1.580000000000e+00
          0.000000000000e+00 0.000000000000e+00 1.590000000000e+00
          0.000000000000e+00 0.000000000000e+00 1.600000000000e+00
          0.000000000000e+00 0.000000000000e+00 1.610000000000e+00
          0.000000000000e+00 0.000000000000e+00 1.620000000000e+00
          0.000000000000e+00 0.000000000000e+00 1.630000000000e+00
          0.000000000000e+00 0.000000000000e+00 1.640000000000e+00
          0.000000000000e+00 0.000000000000e+00 1.650000000000e+00
          0.000000000000e+00 0.000000000000e+00 1.660000000000e+00
          0.000000000000e+00 0.000000000000e+00 1.670000000000e+00
          0.000000000000e+00 0.000000000000e+00 1.680000000000e+00
          0.000000000000e+00 0.000000000000e+00 1.690000000000e+00
          0.000000000000e+00 0.000000000000e+00 1.700000000000e+00
          0.000000000000e+00 0.000000000000e+00 1.710000000000e+00
          0.000000000000e+00 0.000000000000e+00 1.720000000000e+00
          0.000000000000e+00 0.000000000000e+00 1.730000000000e+00
          0.000000000000e+00 0.000000000000e+00 1.740000000000e+00
          0.000000000000e+00 0.000000000000e+00 1.750000000000e+00
          0.000000000000e+00 0.000000000000e+00 1.760000000000e+00
          0.000000000000e+00 0.000000000000e+00 1.770000000000e+00
          0.000000000000e+00 0.000000000000e+00 1.780000000000e+00
          0.000000000000e+00 0.000000000000e+00 1.790000000000e+00
          0.000000000000e+00 0.000000000000e+00 1.800000000000e+00
          0.000000000000e+00 0.000000000000e+00 1.810000000000e+00
          0.000000000000e+00 0.000000000000e+00 1.820000000000e+00
          0.000000000000e+00 0.000000000000e+00 1.830000000000e+00
          0.000000000000e+00 0.000000000000e+00 1.840000000000e+00
          0.000000000000e+00 0.000000000000e+00 1.850000000000e+00
          0.000000000000e+00 0.000000000000e+00 1.860000000000e+00
          0.000000000000e+00 0.000000000000e+00 1.870000000000e+00
          0.000000000000e+00 0.000000000000e+00 1.880000000000e+00
          0.000000000000e+00 0.000000000000e+00 1.890000000000e+00
          0.000000000000e+00 0.000000000000e+00 1.900000000000e+00
          0.000000000000e+00 0.000000000000e+00 1.910000000000e+00
          0.000000000000e+00 0.000000000000e+00 1.920000000000e+00
          0.000000000000e+00 0.000000000000e+00 1.930000000000e+00
          0.000000000000e+00 0.000000000000e+00 1.940000000000e+00
          0.000000000000e+00 0.000000000000e+00 1.950000000000e+00
          0.000000000000e+00 0.000000000000e+00 1.960000000000e+00
          0.000000000000e+00 0.000000000000e+00 1.970000000000e+00
          0.000000000000e+00 0.000000000000e+00 1.980000000000e+00
          0.000000000000e+00 0.000000000000e+00 1.990000000000e+00
          0.000000000000e+00 0.000000000000e+00 2.000000000000e+00
        </DataArray>
      </Points>
      <Cells>
        <DataArray type="Int64" Name="connectivity" format="ascii">
          0 1 
          1 2 
          2 3 
          3 4 
          4 5 
          5 6 
          6 7 
          7 8 
          8 9 
          9 10 
          10 11 
          11 12 
          12 13 
          13 14 
          14 15 
          15 16 
          16 17 
          17 18 
          18 19 
          19 20 
          20 21 
          21 22 
          22 23 
          23 24 
          24 25 
          25 26 
          26 27 
          27 28 
          28 29 
          29 30 
          30 31 
          31 32 
          32 33 
          33 34 
          34 35 
          35 36 
          36 37 
          37 38 
          38 39 
          39 40 
          40 41 
          41 42 
          42 43 
          43 44 
          44 45 
          45 46 
          46 47 
          47 48 
          48 49 
          49 50 
          50 51 
          51 52 
          52 53 
          53 54 
          54 55 
          55 56 
          56 57 
          57 58 
          58 59 
          59 60 
          60 61 
          61 62 
          62 63 
          63 64 
          64 65 
          65 66 
          66 67 
          67 68 
          68 69 
          69 70 
          70 71 
          71 72 
          72 73 
          73 74 
          74 75 
          75 76 
          76 77 
          77 78 
          78 79 
          79 80 
          80 81 
          81 82 
          82 83 
          83 84 
          84 85 
          85 86 
          86 87 
          87 88 
          88 89 
          89 90 
          90 91 
          91 92 
          92 93 
          93 94 
          94 95 
          95 96 
          96 97 
          97 98 
          98 99 
          99 100 
          100 101 
          101 102 
          102 103 
          103 104 
          104 105 
          105 106 
          106 107 
          107 108 
          108 109 
          109 110 
          110 111 
          111 112 
          112 113 
          113 114 
          114 115 
          115 116 
          116 117 
          117 118 
          118 119 
          119 120 
          120 121 
          121 122 
          122 123 
          123 124 
          124 125 
          125 126 
          126 127 
          127 128 
          128 129 
          129 130 
          130 131 
          131 132 
          132 133 
          133 134 
          134 135 
          135 136 
          136 137 
          137 138 
          138 139 
          139 140 
          140 141 
          141 142 
          142 143 
          143 144 
          144 145 
          145 146 
          146 147 
          147 148 
          148 149 
          149 150 
          150 151 
          151 152 
          152 153 
          153 154 
          154 155 
          155 156 
          156 157 
          157 158 
          158 159 
          159 160 
          160 161 
          161 162 
          162 163 
          163 164 
          164 165 
          165 166 
          166 167 
          167 168 
          168 169 
          169 170 
          170 171 
          171 172 
          172 173 
          173 174 
          174 175 
          175 176 
          176 177 
          177 178 
          178 179 
          179 180 
          180 181 
          181 182 
          182 183 
          183 184 
          184 185 
          185 186 
          186 187 
          187 188 
          188 189 
          189 190 
          190 191 
          191 192 
          192 193 
          193 194 
          194 195 
          195 196 
          196 197 
          197 198 
          198 199 
          199 200 
        </DataArray>
        <DataArray type="Int64" Name="offsets" format="ascii">
          2 4 6 8 10 12 14 16 18 20 22 24 26 28 30 32 34 36 38 40 42 44 46 48 50 52 54 56 58 60 62 64 66 68 70 72 74 76 78 80 82 84 86 88 90 92 94 96 98 100 102 104 106 108 110 112 114 116 118 120 122 124 126 128 130 132 134 136 138 140 142 144 146 148 150 152 154 156 158 160 162 164 166 168 170 172 174 176 178 180 182 184 186 188 190 192 194 196 198 200 202 204 206 208 210 212 214 216 218 220 222 224 226 228 230 232 234 236 238 240 242 244 246 248 250 252 254 256 258 260 262 264 266 268 270 272 274 276 278 280 282 284 286 288 290 292 294 296 298 300 302 304 306 308 310 312 314 316 318 320 322 324 326 328 330 332 334 336 338 340 342 344 346 348 350 352 354 356 358 360 362 364 366 368 370 372 374 376 378 380 382 384 386 388 390 392 394 396 398 400 
        </DataArray>
        <DataArray type="UInt8" Name="types" format="ascii">
          3 3 3 3 3 3 3 3 3 3 3 3 3 3 3 3 3 3 3 3 3 3 3 3 3 3 3 3 3 3 3 3 3 3 3 3 3 3 3 3 3 3 3 3 3 3 3 3 3 3 3 3 3 3 3 3 3 3 3 3 3 3 3 3 3 3 3 3 3 3 3 3 3 3 3 3 3 3 3 3 3 3 3 3 3 3 3 3 3 3 3 3 3 3 3 3 3 3 3 3 3 3 3 3 3 3 3 3 3 3 3 3 3 3 3 3 3 3 3 3 3 3 3 3 3 3 3 3 3 3 3 3 3 3 3 3 3 3 3 3 3 3 3 3 3 3 3 3 3 3 3 3 3 3 3 3 3 3 3 3 3 3 3 3 3 3 3 3 3 3 3 3 3 3 3 3 3 3 3 3 3 3 3 3 3 3 3 3 3 3 3 3 3 3 3 3 3 3 3 3 
        </DataArray>
      </Cells>
      <PointData Scalars="PRESSURE1">
        <DataArray type="Float64" Name="PRESSURE1" format="ascii">
          -2.150000000000e+04 -2.150000000000e+04 -2.150000000000e+04 -2.150000000000e+04 -2.150000000000e+04 -2.150000000000e+04 -2.150000000000e+04 -2.150000000000e+04 -2.150000000000e+04 -2.150000000000e+04 -2.150000000000e+04 -2.150000000000e+04 -2.150000000000e+04 -2.150000000000e+04 -2.150000000000e+04 -2.150000000000e+04 -2.150000000000e+04 -2.150000000000e+04 -2.150000000000e+04 -2.150000000000e+04 -2.150000000000e+04 -2.150000000000e+04 -2.150000000000e+04 -2.150000000000e+04 -2.150000000000e+04 -2.150000000000e+04 -2.150000000000e+04 -2.150000000000e+04 -2.150000000000e+04 -2.150000000000e+04 -2.150000000000e+04 -2.150000000000e+04 -2.150000000000e+04 -2.150000000000e+04 -2.150000000000e+04 -2.150000000000e+04 -2.150000000000e+04 -2.150000000000e+04 -2.150000000000e+04 -2.150000000000e+04 -2.150000000000e+04 -2.150000000000e+04 -2.150000000000e+04 -2.150000000000e+04 -2.150000000000e+04 -2.150000000000e+04 -2.150000000000e+04 -2.150000000000e+04 -2.150000000000e+04 -2.150000000000e+04 -2.150000000000e+04 -2.150000000000e+04 -2.150000000000e+04 -2.150000000000e+04 -2.150000000000e+04 -2.150000000000e+04 -2.150000000000e+04 -2.150000000000e+04 -2.150000000000e+04 -2.150000000000e+04 -2.150000000000e+04 -2.150000000000e+04 -2.150000000000e+04 -2.150000000000e+04 -2.150000000000e+04 -2.150000000000e+04 -2.150000000000e+04 -2.150000000000e+04 -2.150000000000e+04 -2.150000000000e+04 -2.150000000000e+04 -2.150000000000e+04 -2.150000000000e+04 -2.150000000000e+04 -2.150000000000e+04 -2.150000000000e+04 -2.150000000000e+04 -2.150000000000e+04 -2.150000000000e+04 -2.150000000000e+04 -2.150000000000e+04 -2.150000000000e+04 -2.150000000000e+04 -2.150000000000e+04 -2.150000000000e+04 -2.150000000000e+04 -2.150000000000e+04 -2.150000000000e+04 -2.150000000000e+04 -2.150000000000e+04 -2.150000000000e+04 -2.150000000000e+04 -2.150000000000e+04 -2.150000000000e+04 -2.150000000000e+04 -2.150000000000e+04 -2.150000000000e+04 -2.150000000000e+04 -2.150000000000e+04 -2.150000000000e+04 -2.150000000000e+04 -2.150000000000e+04 -2.150000000000e+04 -2.150000000000e+04 -2.150000000000e+04 -2.150000000000e+04 -2.150000000000e+04 -2.150000000000e+04 -2.150000000000e+04 -2.150000000000e+04 -2.150000000000e+04 -2.150000000000e+04 -2.150000000000e+04 -2.150000000000e+04 -2.150000000000e+04 -2.150000000000e+04 -2.150000000000e+04 -2.150000000000e+04 -2.150000000000e+04 -2.150000000000e+04 -2.150000000000e+04 -2.150000000000e+04 -2.150000000000e+04 -2.150000000000e+04 -2.150000000000e+04 -2.150000000000e+04 -2.150000000000e+04 -2.150000000000e+04 -2.150000000000e+04 -2.150000000000e+04 -2.150000000000e+04 -2.150000000000e+04 -2.150000000000e+04 -2.150000000000e+04 -2.150000000000e+04 -2.150000000000e+04 -2.150000000000e+04 -2.150000000000e+04 -2.150000000000e+04 -2.150000000000e+04 -2.150000000000e+04 -2.150000000000e+04 -2.150000000000e+04 -2.150000000000e+04 -2.150000000000e+04 -2.150000000000e+04 -2.150000000000e+04 -2.150000000000e+04 -2.150000000000e+04 -2.150000000000e+04 -2.150000000000e+04 -2.150000000000e+04 -2.150000000000e+04 -2.150000000000e+04 -2.150000000000e+04 -2.150000000000e+04 -2.150000000000e+04 -2.150000000000e+04 -2.150000000000e+04 -2.150000000000e+04 -2.150000000000e+04 -2.150000000000e+04 -2.150000000000e+04 -2.150000000000e+04 -2.150000000000e+04 -2.150000000000e+04 -2.150000000000e+04 -2.149999999999e+04 -2.149999999995e+04 -2.149999999960e+04 -2.149999999653e+04 -2.149999997021e+04 -2.149999974557e+04 -2.149999783837e+04 -2.149998174466e+04 -2.149984691743e+04 -2.149872700231e+04 -2.148951954435e+04 -2.141482335721e+04 -2.082447168092e+04 -1.659596115683e+04 -4.283747826954e+03 -2.636383485459e+03 -2.362989932951e+03 -2.129470569739e+03 -1.924583544880e+03 -1.746436869857e+03 -1.590475662777e+03 -1.455896262423e+03 -1.336579695094e+03 -1.218540631002e+03 -1.099431063001e+03 -9.793991520745e+02 -8.585788971952e+02 -7.370925905807e+02 -6.150527567670e+02 -4.925637897392e+02 -3.697234213722e+02 -2.466241013235e+02 -1.233543343914e+02 0.000000000000e+00 
        </DataArray>
        <DataArray type="Float64" Name="SATURATION1" format="ascii">
          4.545259079631e-01 4.545259079631e-01 4.545259079631e-01 4.545259079631e-01 4.545259079631e-01 4.545259079631e-01 4.545259079631e-01 4.545259079631e-01 4.545259079631e-01 4.545259079631e-01 4.545259079631e-01 4.545259079631e-01 4.545259079631e-01 4.545259079631e-01 4.545259079631e-01 4.545259079631e-01 4.545259079631e-01 4.545259079631e-01 4.545259079631e-01 4.545259079631e-01 4.545259079631e-01 4.545259079631e-01 4.545259079631e-01 4.545259079631e-01 4.545259079631e-01 4.545259079631e-01 4.545259079631e-01 4.545259079631e-01 4.545259079631e-01 4.545259079631e-01 4.545259079631e-01 4.545259079631e-01 4.545259079631e-01 4.545259079631e-01 4.545259079631e-01 4.545259079631e-01 4.545259079631e-01 4.545259079631e-01 4.545259079631e-01 4.545259079631e-01 4.545259079631e-01 4.545259079631e-01 4.545259079631e-01 4.545259079631e-01 4.545259079631e-01 4.545259079631e-01 4.545259079631e-01 4.545259079631e-01 4.545259079631e-01 4.545259079631e-01 4.545259079631e-01 4.545259079631e-01 4.545259079631e-01 4.545259079631e-01 4.545259079631e-01 4.545259079631e-01 4.545259079631e-01 4.545259079631e-01 4.545259079631e-01 4.545259079631e-01 4.545259079631e-01 4.545259079631e-01 4.545259079631e-01 4.545259079631e-01 4.545259079631e-01 4.545259079631e-01 4.545259079631e-01 4.545259079631e-01 4.545259079631e-01 4.545259079631e-01 4.545259079631e-01 4.545259079631e-01 4.545259079631e-01 4.545259079631e-01 4.545259079631e-01 4.545259079631e-01 4.545259079631e-01 4.545259079631e-01 4.545259079631e-01 4.545259079631e-01 4.545259079631e-01 4.545259079631e-01 4.545259079631e-01 4.545259079631e-01 4.545259079631e-01 4.545259079631e-01 4.545259079631e-01 4.545259079631e-01 4.545259079631e-01 4.545259079631e-01 4.545259079631e-01 4.545259079631e-01 4.545259079631e-01 4.545259079631e-01 4.545259079631e-01 4.545259079631e-01 4.545259079631e-01 4.545259079631e-01 4.545259079631e-01 4.545259079631e-01 4.545259079631e-01 4.545259079631e-01 4.545259079631e-01 4.545259079631e-01 4.545259079631e-01 4.545259079631e-01 4.545259079631e-01 4.545259079631e-01 4.545259079631e-01 4.545259079631e-01 4.545259079631e-01 4.545259079631e-01 4.545259079631e-01 4.545259079631e-01 4.545259079631e-01 4.545259079631e-01 4.545259079631e-01 4.545259079631e-01 4.545259079631e-01 4.545259079631e-01 4.545259079631e-01 4.545259079631e-01 4.545259079631e-01 4.545259079631e-01 4.545259079631e-01 4.545259079631e-01 4.545259079631e-01 4.545259079631e-01 4.545259079631e-01 4.545259079631e-01 4.545259079631e-01 4.545259079631e-01 4.545259079631e-01 4.545259079631e-01 4.545259079631e-01 4.545259079631e-01 4.545259079631e-01 4.545259079631e-01 4.545259079631e-01 4.545259079631e-01 4.545259079631e-01 4.545259079631e-01 4.545259079631e-01 4.545259079631e-01 4.545259079631e-01 4.545259079631e-01 4.545259079631e-01 4.545259079631e-01 4.545259079631e-01 4.545259079631e-01 4.545259079631e-01 4.545259079631e-01 4.545259079631e-01 4.545259079631e-01 4.545259079631e-01 4.545259079631e-01 4.545259079631e-01 4.545259079631e-01 4.545259079631e-01 4.545259079631e-01 4.545259079631e-01 4.545259079631e-01 4.545259079631e-01 4.545259079631e-01 4.545259079631e-01 4.545259079631e-01 4.545259079631e-01 4.545259079632e-01 4.545259079637e-01 4.545259079680e-01 4.545259080055e-01 4.545259083267e-01 4.545259110678e-01 4.545259343407e-01 4.545261307269e-01 4.545277759784e-01 4.545414419268e-01 4.546537974467e-01 4.555652899539e-01 4.627691533657e-01 5.008382262787e-01 8.283132787367e-01 9.594207448215e-01 9.636159296839e-01 9.710813689170e-01 9.784581711578e-01 9.852806152477e-01 9.922111973259e-01 9.987577461661e-01 1.000000000000e+00 1.000000000000e+00 1.000000000000e+00 1.000000000000e+00 1.000000000000e+00 1.000000000000e+00 1.000000000000e+00 1.000000000000e+00 1.000000000000e+00 1.000000000000e+00 1.000000000000e+00 1.000000000000e+00 
        </DataArray>
      </PointData>
      <CellData>
      </CellData>
    </Piece>
  </UnstructuredGrid>
</VTKFile>
