<?xml version="1.0"?>
<!-- Time step: 617 | Time: 6.120000000000e+04 -->
<VTKFile type="UnstructuredGrid" version="0.1" byte_order="LittleEndian">
  <UnstructuredGrid>
    <Piece NumberOfPoints="201" NumberOfCells="200">
      <Points>
        <DataArray type="Float64" NumberOfComponents="3" format="ascii">
          0.000000000000e+00 0.000000000000e+00 0.000000000000e+00
          0.000000000000e+00 0.000000000000e+00 1.000000000000e-02
          0.000000000000e+00 0.000000000000e+00 2.000000000000e-02
          0.000000000000e+00 0.000000000000e+00 3.000000000000e-02
          0.000000000000e+00 0.000000000000e+00 4.000000000000e-02
          0.000000000000e+00 0.000000000000e+00 5.000000000000e-02
          0.000000000000e+00 0.000000000000e+00 6.000000000000e-02
          0.000000000000e+00 0.000000000000e+00 7.000000000000e-02
          0.000000000000e+00 0.000000000000e+00 8.000000000000e-02
          0.000000000000e+00 0.000000000000e+00 9.000000000000e-02
          0.000000000000e+00 0.000000000000e+00 1.000000000000e-01
          0.000000000000e+00 0.000000000000e+00 1.100000000000e-01
          0.000000000000e+00 0.000000000000e+00 1.200000000000e-01
          0.000000000000e+00 0.000000000000e+00 1.300000000000e-01
          0.000000000000e+00 0.000000000000e+00 1.400000000000e-01
          0.000000000000e+00 0.000000000000e+00 1.500000000000e-01
          0.000000000000e+00 0.000000000000e+00 1.600000000000e-01
          0.000000000000e+00 0.000000000000e+00 1.700000000000e-01
          0.000000000000e+00 0.000000000000e+00 1.800000000000e-01
          0.000000000000e+00 0.000000000000e+00 1.900000000000e-01
          0.000000000000e+00 0.000000000000e+00 2.000000000000e-01
          0.000000000000e+00 0.000000000000e+00 2.100000000000e-01
          0.000000000000e+00 0.000000000000e+00 2.200000000000e-01
          0.000000000000e+00 0.000000000000e+00 2.300000000000e-01
          0.000000000000e+00 0.000000000000e+00 2.400000000000e-01
          0.000000000000e+00 0.000000000000e+00 2.500000000000e-01
          0.000000000000e+00 0.000000000000e+00 2.600000000000e-01
          0.000000000000e+00 0.000000000000e+00 2.700000000000e-01
          0.000000000000e+00 0.000000000000e+00 2.800000000000e-01
          0.000000000000e+00 0.000000000000e+00 2.900000000000e-01
          0.000000000000e+00 0.000000000000e+00 3.000000000000e-01
          0.000000000000e+00 0.000000000000e+00 3.100000000000e-01
          0.000000000000e+00 0.000000000000e+00 3.200000000000e-01
          0.000000000000e+00 0.000000000000e+00 3.300000000000e-01
          0.000000000000e+00 0.000000000000e+00 3.400000000000e-01
          0.000000000000e+00 0.000000000000e+00 3.500000000000e-01
          0.000000000000e+00 0.000000000000e+00 3.600000000000e-01
          0.000000000000e+00 0.000000000000e+00 3.700000000000e-01
          0.000000000000e+00 0.000000000000e+00 3.800000000000e-01
          0.000000000000e+00 0.000000000000e+00 3.900000000000e-01
          0.000000000000e+00 0.000000000000e+00 4.000000000000e-01
          0.000000000000e+00 0.000000000000e+00 4.100000000000e-01
          0.000000000000e+00 0.000000000000e+00 4.200000000000e-01
          0.000000000000e+00 0.000000000000e+00 4.300000000000e-01
          0.000000000000e+00 0.000000000000e+00 4.400000000000e-01
          0.000000000000e+00 0.000000000000e+00 4.500000000000e-01
          0.000000000000e+00 0.000000000000e+00 4.600000000000e-01
          0.000000000000e+00 0.000000000000e+00 4.700000000000e-01
          0.000000000000e+00 0.000000000000e+00 4.800000000000e-01
          0.000000000000e+00 0.000000000000e+00 4.900000000000e-01
          0.000000000000e+00 0.000000000000e+00 5.000000000000e-01
          0.000000000000e+00 0.000000000000e+00 5.100000000000e-01
          0.000000000000e+00 0.000000000000e+00 5.200000000000e-01
          0.000000000000e+00 0.000000000000e+00 5.300000000000e-01
          0.000000000000e+00 0.000000000000e+00 5.400000000000e-01
          0.000000000000e+00 0.000000000000e+00 5.500000000000e-01
          0.000000000000e+00 0.000000000000e+00 5.600000000000e-01
          0.000000000000e+00 0.000000000000e+00 5.700000000000e-01
          0.000000000000e+00 0.000000000000e+00 5.800000000000e-01
          0.000000000000e+00 0.000000000000e+00 5.900000000000e-01
          0.000000000000e+00 0.000000000000e+00 6.000000000000e-01
          0.000000000000e+00 0.000000000000e+00 6.100000000000e-01
          0.000000000000e+00 0.000000000000e+00 6.200000000000e-01
          0.000000000000e+00 0.000000000000e+00 6.300000000000e-01
          0.000000000000e+00 0.000000000000e+00 6.400000000000e-01
          0.000000000000e+00 0.000000000000e+00 6.500000000000e-01
          0.000000000000e+00 0.000000000000e+00 6.600000000000e-01
          0.000000000000e+00 0.000000000000e+00 6.700000000000e-01
          0.000000000000e+00 0.000000000000e+00 6.800000000000e-01
          0.000000000000e+00 0.000000000000e+00 6.900000000000e-01
          0.000000000000e+00 0.000000000000e+00 7.000000000000e-01
          0.000000000000e+00 0.000000000000e+00 7.100000000000e-01
          0.000000000000e+00 0.000000000000e+00 7.200000000000e-01
          0.000000000000e+00 0.000000000000e+00 7.300000000000e-01
          0.000000000000e+00 0.000000000000e+00 7.400000000000e-01
          0.000000000000e+00 0.000000000000e+00 7.500000000000e-01
          0.000000000000e+00 0.000000000000e+00 7.600000000000e-01
          0.000000000000e+00 0.000000000000e+00 7.700000000000e-01
          0.000000000000e+00 0.000000000000e+00 7.800000000000e-01
          0.000000000000e+00 0.000000000000e+00 7.900000000000e-01
          0.000000000000e+00 0.000000000000e+00 8.000000000000e-01
          0.000000000000e+00 0.000000000000e+00 8.100000000000e-01
          0.000000000000e+00 0.000000000000e+00 8.200000000000e-01
          0.000000000000e+00 0.000000000000e+00 8.300000000000e-01
          0.000000000000e+00 0.000000000000e+00 8.400000000000e-01
          0.000000000000e+00 0.000000000000e+00 8.500000000000e-01
          0.000000000000e+00 0.000000000000e+00 8.600000000000e-01
          0.000000000000e+00 0.000000000000e+00 8.700000000000e-01
          0.000000000000e+00 0.000000000000e+00 8.800000000000e-01
          0.000000000000e+00 0.000000000000e+00 8.900000000000e-01
          0.000000000000e+00 0.000000000000e+00 9.000000000000e-01
          0.000000000000e+00 0.000000000000e+00 9.100000000000e-01
          0.000000000000e+00 0.000000000000e+00 9.200000000000e-01
          0.000000000000e+00 0.000000000000e+00 9.300000000000e-01
          0.000000000000e+00 0.000000000000e+00 9.400000000000e-01
          0.000000000000e+00 0.000000000000e+00 9.500000000000e-01
          0.000000000000e+00 0.000000000000e+00 9.600000000000e-01
          0.000000000000e+00 0.000000000000e+00 9.700000000000e-01
          0.000000000000e+00 0.000000000000e+00 9.800000000000e-01
          0.000000000000e+00 0.000000000000e+00 9.900000000000e-01
          0.000000000000e+00 0.000000000000e+00 1.000000000000e+00
          0.000000000000e+00 0.000000000000e+00 1.010000000000e+00
          0.000000000000e+00 0.000000000000e+00 1.020000000000e+00
          0.000000000000e+00 0.000000000000e+00 1.030000000000e+00
          0.000000000000e+00 0.000000000000e+00 1.040000000000e+00
          0.000000000000e+00 0.000000000000e+00 1.050000000000e+00
          0.000000000000e+00 0.000000000000e+00 1.060000000000e+00
          0.000000000000e+00 0.000000000000e+00 1.070000000000e+00
          0.000000000000e+00 0.000000000000e+00 1.080000000000e+00
          0.000000000000e+00 0.000000000000e+00 1.090000000000e+00
          0.000000000000e+00 0.000000000000e+00 1.100000000000e+00
          0.000000000000e+00 0.000000000000e+00 1.110000000000e+00
          0.000000000000e+00 0.000000000000e+00 1.120000000000e+00
          0.000000000000e+00 0.000000000000e+00 1.130000000000e+00
          0.000000000000e+00 0.000000000000e+00 1.140000000000e+00
          0.000000000000e+00 0.000000000000e+00 1.150000000000e+00
          0.000000000000e+00 0.000000000000e+00 1.160000000000e+00
          0.000000000000e+00 0.000000000000e+00 1.170000000000e+00
          0.000000000000e+00 0.000000000000e+00 1.180000000000e+00
          0.000000000000e+00 0.000000000000e+00 1.190000000000e+00
          0.000000000000e+00 0.000000000000e+00 1.200000000000e+00
          0.000000000000e+00 0.000000000000e+00 1.210000000000e+00
          0.000000000000e+00 0.000000000000e+00 1.220000000000e+00
          0.000000000000e+00 0.000000000000e+00 1.230000000000e+00
          0.000000000000e+00 0.000000000000e+00 1.240000000000e+00
          0.000000000000e+00 0.000000000000e+00 1.250000000000e+00
          0.000000000000e+00 0.000000000000e+00 1.260000000000e+00
          0.000000000000e+00 0.000000000000e+00 1.270000000000e+00
          0.000000000000e+00 0.000000000000e+00 1.280000000000e+00
          0.000000000000e+00 0.000000000000e+00 1.290000000000e+00
          0.000000000000e+00 0.000000000000e+00 1.300000000000e+00
          0.000000000000e+00 0.000000000000e+00 1.310000000000e+00
          0.000000000000e+00 0.000000000000e+00 1.320000000000e+00
          0.000000000000e+00 0.000000000000e+00 1.330000000000e+00
          0.000000000000e+00 0.000000000000e+00 1.340000000000e+00
          0.000000000000e+00 0.000000000000e+00 1.350000000000e+00
          0.000000000000e+00 0.000000000000e+00 1.360000000000e+00
          0.000000000000e+00 0.000000000000e+00 1.370000000000e+00
          0.000000000000e+00 0.000000000000e+00 1.380000000000e+00
          0.000000000000e+00 0.000000000000e+00 1.390000000000e+00
          0.000000000000e+00 0.000000000000e+00 1.400000000000e+00
          0.000000000000e+00 0.000000000000e+00 1.410000000000e+00
          0.000000000000e+00 0.000000000000e+00 1.420000000000e+00
          0.000000000000e+00 0.000000000000e+00 1.430000000000e+00
          0.000000000000e+00 0.000000000000e+00 1.440000000000e+00
          0.000000000000e+00 0.000000000000e+00 1.450000000000e+00
          0.000000000000e+00 0.000000000000e+00 1.460000000000e+00
          0.000000000000e+00 0.000000000000e+00 1.470000000000e+00
          0.000000000000e+00 0.000000000000e+00 1.480000000000e+00
          0.000000000000e+00 0.000000000000e+00 1.490000000000e+00
          0.000000000000e+00 0.000000000000e+00 1.500000000000e+00
          0.000000000000e+00 0.000000000000e+00 1.510000000000e+00
          0.000000000000e+00 0.000000000000e+00 1.520000000000e+00
          0.000000000000e+00 0.000000000000e+00 1.530000000000e+00
          0.000000000000e+00 0.000000000000e+00 1.540000000000e+00
          0.000000000000e+00 0.000000000000e+00 1.550000000000e+00
          0.000000000000e+00 0.000000000000e+00 1.560000000000e+00
          0.000000000000e+00 0.000000000000e+00 1.570000000000e+00
          0.000000000000e+00 0.000000000000e+00 1.580000000000e+00
          0.000000000000e+00 0.000000000000e+00 1.590000000000e+00
          0.000000000000e+00 0.000000000000e+00 1.600000000000e+00
          0.000000000000e+00 0.000000000000e+00 1.610000000000e+00
          0.000000000000e+00 0.000000000000e+00 1.620000000000e+00
          0.000000000000e+00 0.000000000000e+00 1.630000000000e+00
          0.000000000000e+00 0.000000000000e+00 1.640000000000e+00
          0.000000000000e+00 0.000000000000e+00 1.650000000000e+00
          0.000000000000e+00 0.000000000000e+00 1.660000000000e+00
          0.000000000000e+00 0.000000000000e+00 1.670000000000e+00
          0.000000000000e+00 0.000000000000e+00 1.680000000000e+00
          0.000000000000e+00 0.000000000000e+00 1.690000000000e+00
          0.000000000000e+00 0.000000000000e+00 1.700000000000e+00
          0.000000000000e+00 0.000000000000e+00 1.710000000000e+00
          0.000000000000e+00 0.000000000000e+00 1.720000000000e+00
          0.000000000000e+00 0.000000000000e+00 1.730000000000e+00
          0.000000000000e+00 0.000000000000e+00 1.740000000000e+00
          0.000000000000e+00 0.000000000000e+00 1.750000000000e+00
          0.000000000000e+00 0.000000000000e+00 1.760000000000e+00
          0.000000000000e+00 0.000000000000e+00 1.770000000000e+00
          0.000000000000e+00 0.000000000000e+00 1.780000000000e+00
          0.000000000000e+00 0.000000000000e+00 1.790000000000e+00
          0.000000000000e+00 0.000000000000e+00 1.800000000000e+00
          0.000000000000e+00 0.000000000000e+00 1.810000000000e+00
          0.000000000000e+00 0.000000000000e+00 1.820000000000e+00
          0.000000000000e+00 0.000000000000e+00 1.830000000000e+00
          0.000000000000e+00 0.000000000000e+00 1.840000000000e+00
          0.000000000000e+00 0.000000000000e+00 1.850000000000e+00
          0.000000000000e+00 0.000000000000e+00 1.860000000000e+00
          0.000000000000e+00 0.000000000000e+00 1.870000000000e+00
          0.000000000000e+00 0.000000000000e+00 1.880000000000e+00
          0.000000000000e+00 0.000000000000e+00 1.890000000000e+00
          0.000000000000e+00 0.000000000000e+00 1.900000000000e+00
          0.000000000000e+00 0.000000000000e+00 1.910000000000e+00
          0.000000000000e+00 0.000000000000e+00 1.920000000000e+00
          0.000000000000e+00 0.000000000000e+00 1.930000000000e+00
          0.000000000000e+00 0.000000000000e+00 1.940000000000e+00
          0.000000000000e+00 0.000000000000e+00 1.950000000000e+00
          0.000000000000e+00 0.000000000000e+00 1.960000000000e+00
          0.000000000000e+00 0.000000000000e+00 1.970000000000e+00
          0.000000000000e+00 0.000000000000e+00 1.980000000000e+00
          0.000000000000e+00 0.000000000000e+00 1.990000000000e+00
          0.000000000000e+00 0.000000000000e+00 2.000000000000e+00
        </DataArray>
      </Points>
      <Cells>
        <DataArray type="Int64" Name="connectivity" format="ascii">
          0 1 
          1 2 
          2 3 
          3 4 
          4 5 
          5 6 
          6 7 
          7 8 
          8 9 
          9 10 
          10 11 
          11 12 
          12 13 
          13 14 
          14 15 
          15 16 
          16 17 
          17 18 
          18 19 
          19 20 
          20 21 
          21 22 
          22 23 
          23 24 
          24 25 
          25 26 
          26 27 
          27 28 
          28 29 
          29 30 
          30 31 
          31 32 
          32 33 
          33 34 
          34 35 
          35 36 
          36 37 
          37 38 
          38 39 
          39 40 
          40 41 
          41 42 
          42 43 
          43 44 
          44 45 
          45 46 
          46 47 
          47 48 
          48 49 
          49 50 
          50 51 
          51 52 
          52 53 
          53 54 
          54 55 
          55 56 
          56 57 
          57 58 
          58 59 
          59 60 
          60 61 
          61 62 
          62 63 
          63 64 
          64 65 
          65 66 
          66 67 
          67 68 
          68 69 
          69 70 
          70 71 
          71 72 
          72 73 
          73 74 
          74 75 
          75 76 
          76 77 
          77 78 
          78 79 
          79 80 
          80 81 
          81 82 
          82 83 
          83 84 
          84 85 
          85 86 
          86 87 
          87 88 
          88 89 
          89 90 
          90 91 
          91 92 
          92 93 
          93 94 
          94 95 
          95 96 
          96 97 
          97 98 
          98 99 
          99 100 
          100 101 
          101 102 
          102 103 
          103 104 
          104 105 
          105 106 
          106 107 
          107 108 
          108 109 
          109 110 
          110 111 
          111 112 
          112 113 
          113 114 
          114 115 
          115 116 
          116 117 
          117 118 
          118 119 
          119 120 
          120 121 
          121 122 
          122 123 
          123 124 
          124 125 
          125 126 
          126 127 
          127 128 
          128 129 
          129 130 
          130 131 
          131 132 
          132 133 
          133 134 
          134 135 
          135 136 
          136 137 
          137 138 
          138 139 
          139 140 
          140 141 
          141 142 
          142 143 
          143 144 
          144 145 
          145 146 
          146 147 
          147 148 
          148 149 
          149 150 
          150 151 
          151 152 
          152 153 
          153 154 
          154 155 
          155 156 
          156 157 
          157 158 
          158 159 
          159 160 
          160 161 
          161 162 
          162 163 
          163 164 
          164 165 
          165 166 
          166 167 
          167 168 
          168 169 
          169 170 
          170 171 
          171 172 
          172 173 
          173 174 
          174 175 
          175 176 
          176 177 
          177 178 
          178 179 
          179 180 
          180 181 
          181 182 
          182 183 
          183 184 
          184 185 
          185 186 
          186 187 
          187 188 
          188 189 
          189 190 
          190 191 
          191 192 
          192 193 
          193 194 
          194 195 
          195 196 
          196 197 
          197 198 
          198 199 
          199 200 
        </DataArray>
        <DataArray type="Int64" Name="offsets" format="ascii">
          2 4 6 8 10 12 14 16 18 20 22 24 26 28 30 32 34 36 38 40 42 44 46 48 50 52 54 56 58 60 62 64 66 68 70 72 74 76 78 80 82 84 86 88 90 92 94 96 98 100 102 104 106 108 110 112 114 116 118 120 122 124 126 128 130 132 134 136 138 140 142 144 146 148 150 152 154 156 158 160 162 164 166 168 170 172 174 176 178 180 182 184 186 188 190 192 194 196 198 200 202 204 206 208 210 212 214 216 218 220 222 224 226 228 230 232 234 236 238 240 242 244 246 248 250 252 254 256 258 260 262 264 266 268 270 272 274 276 278 280 282 284 286 288 290 292 294 296 298 300 302 304 306 308 310 312 314 316 318 320 322 324 326 328 330 332 334 336 338 340 342 344 346 348 350 352 354 356 358 360 362 364 366 368 370 372 374 376 378 380 382 384 386 388 390 392 394 396 398 400 
        </DataArray>
        <DataArray type="UInt8" Name="types" format="ascii">
          3 3 3 3 3 3 3 3 3 3 3 3 3 3 3 3 3 3 3 3 3 3 3 3 3 3 3 3 3 3 3 3 3 3 3 3 3 3 3 3 3 3 3 3 3 3 3 3 3 3 3 3 3 3 3 3 3 3 3 3 3 3 3 3 3 3 3 3 3 3 3 3 3 3 3 3 3 3 3 3 3 3 3 3 3 3 3 3 3 3 3 3 3 3 3 3 3 3 3 3 3 3 3 3 3 3 3 3 3 3 3 3 3 3 3 3 3 3 3 3 3 3 3 3 3 3 3 3 3 3 3 3 3 3 3 3 3 3 3 3 3 3 3 3 3 3 3 3 3 3 3 3 3 3 3 3 3 3 3 3 3 3 3 3 3 3 3 3 3 3 3 3 3 3 3 3 3 3 3 3 3 3 3 3 3 3 3 3 3 3 3 3 3 3 3 3 3 3 3 3 
        </DataArray>
      </Cells>
      <PointData Scalars="PRESSURE1">
        <DataArray type="Float64" Name="PRESSURE1" format="ascii">
          -2.150000000000e+04 -2.150000000000e+04 -2.150000000000e+04 -2.150000000000e+04 -2.150000000000e+04 -2.150000000000e+04 -2.150000000000e+04 -2.150000000000e+04 -2.150000000000e+04 -2.150000000000e+04 -2.150000000000e+04 -2.150000000000e+04 -2.149999999999e+04 -2.149999999994e+04 -2.149999999971e+04 -2.149999999857e+04 -2.149999999286e+04 -2.149999996439e+04 -2.149999982254e+04 -2.149999911596e+04 -2.149999559762e+04 -2.149997808578e+04 -2.149989096324e+04 -2.149945773410e+04 -2.149730462248e+04 -2.148661307317e+04 -2.143366895290e+04 -2.117483016215e+04 -1.998149610169e+04 -1.548642184827e+04 -8.218515382007e+03 -6.149527577815e+03 -5.010279062021e+03 -4.277977281332e+03 -3.825089252428e+03 -3.515058937892e+03 -3.289487477976e+03 -3.116301641779e+03 -2.984379711538e+03 -2.878103078543e+03 -2.784983461903e+03 -2.697060464039e+03 -2.613861511653e+03 -2.534974167452e+03 -2.460028273622e+03 -2.389209434647e+03 -2.323066028374e+03 -2.261055261640e+03 -2.202698316098e+03 -2.147598995911e+03 -2.095425128049e+03 -2.045895029902e+03 -1.999186289116e+03 -1.955683973110e+03 -1.915036089892e+03 -1.876941995165e+03 -1.841148022046e+03 -1.807437868213e+03 -1.775625382506e+03 -1.745549058740e+03 -1.717067769440e+03 -1.690097710567e+03 -1.664995319754e+03 -1.641673095996e+03 -1.619955040216e+03 -1.599689676403e+03 -1.580745574646e+03 -1.563007871046e+03 -1.546375526841e+03 -1.530759143504e+03 -1.516079201933e+03 -1.502264629282e+03 -1.489251621845e+03 -1.476982670177e+03 -1.465405745483e+03 -1.454473615726e+03 -1.444143266929e+03 -1.434375410415e+03 -1.425134060710e+03 -1.416335451878e+03 -1.407549618082e+03 -1.398699438110e+03 -1.389785100526e+03 -1.380806807797e+03 -1.371764774721e+03 -1.362659227159e+03 -1.353490401020e+03 -1.344258541458e+03 -1.334963902226e+03 -1.325606745171e+03 -1.316187339840e+03 -1.306705963159e+03 -1.297162899198e+03 -1.287558438974e+03 -1.277892880306e+03 -1.268166527699e+03 -1.258379692252e+03 -1.248532691590e+03 -1.238625849809e+03 -1.228659497426e+03 -1.218633971347e+03 -1.208549614834e+03 -1.198406777476e+03 -1.188205815165e+03 -1.177947090076e+03 -1.167630970639e+03 -1.157257831518e+03 -1.146828053593e+03 -1.136342023926e+03 -1.125800135747e+03 -1.115202788422e+03 -1.104550387426e+03 -1.093843344318e+03 -1.083082076709e+03 -1.072267008230e+03 -1.061398568503e+03 -1.050477193103e+03 -1.039503323527e+03 -1.028477407155e+03 -1.017399897212e+03 -1.006271252734e+03 -9.950919385194e+02 -9.838624250969e+02 -9.725831886768e+02 -9.612547111101e+02 -9.498774798436e+02 -9.384519878741e+02 -9.269787337018e+02 -9.154582212826e+02 -9.038909599794e+02 -8.922774645123e+02 -8.806182549083e+02 -8.689138564493e+02 -8.571647996198e+02 -8.453716200535e+02 -8.335348584787e+02 -8.216550606635e+02 -8.097327773592e+02 -7.977685642435e+02 -7.857629818629e+02 -7.737165955736e+02 -7.616299754823e+02 -7.495036963856e+02 -7.373383377090e+02 -7.251344834450e+02 -7.128927220900e+02 -7.006136465811e+02 -6.882978542317e+02 -6.759459466661e+02 -6.635585297542e+02 -6.511362135445e+02 -6.386796121967e+02 -6.261893439142e+02 -6.136660308748e+02 -6.011102991614e+02 -5.885227786919e+02 -5.759041031484e+02 -5.632549099058e+02 -5.505758399593e+02 -5.378675378518e+02 -5.251306516006e+02 -5.123658326232e+02 -4.995737356628e+02 -4.867550187126e+02 -4.739103429406e+02 -4.610403726128e+02 -4.481457750163e+02 -4.352272203818e+02 -4.222853818055e+02 -4.093209351708e+02 -3.963345590690e+02 -3.833269347197e+02 -3.702987458912e+02 -3.572506788192e+02 -3.441834221269e+02 -3.310976667429e+02 -3.179941058195e+02 -3.048734346509e+02 -2.917363505901e+02 -2.785835529665e+02 -2.654157430020e+02 -2.522336237278e+02 -2.390378999004e+02 -2.258292779168e+02 -2.126084657306e+02 -1.993761727665e+02 -1.861331098357e+02 -1.728799890500e+02 -1.596175237363e+02 -1.463464283511e+02 -1.330674183939e+02 -1.197812103212e+02 -1.064885214600e+02 -9.319006992132e+01 -7.988657451334e+01 -6.657875465453e+01 -5.326733028671e+01 -3.995302178794e+01 -2.663654988542e+01 -1.331863556821e+01 0.000000000000e+00 
        </DataArray>
        <DataArray type="Float64" Name="SATURATION1" format="ascii">
          4.545259079631e-01 4.545259079631e-01 4.545259079631e-01 4.545259079631e-01 4.545259079631e-01 4.545259079631e-01 4.545259079631e-01 4.545259079631e-01 4.545259079631e-01 4.545259079631e-01 4.545259079631e-01 4.545259079631e-01 4.545259079633e-01 4.545259079638e-01 4.545259079666e-01 4.545259079806e-01 4.545259080503e-01 4.545259083976e-01 4.545259101286e-01 4.545259187508e-01 4.545259616839e-01 4.545261753750e-01 4.545272385021e-01 4.545325250520e-01 4.545587987505e-01 4.546892641392e-01 4.553353234733e-01 4.584938463829e-01 4.730557014967e-01 5.254730066936e-01 6.867900760990e-01 7.649167783842e-01 8.102436841856e-01 8.507818724887e-01 8.789989572411e-01 9.001684838626e-01 9.168000682633e-01 9.305483204040e-01 9.414231217628e-01 9.496602168863e-01 9.518365793633e-01 9.542036953646e-01 9.564436277630e-01 9.585674804443e-01 9.605907239341e-01 9.628592568523e-01 9.649728806124e-01 9.669544451754e-01 9.688192512628e-01 9.705799593797e-01 9.722471841718e-01 9.738445579433e-01 9.756515088542e-01 9.773207909195e-01 9.788805419551e-01 9.803422983616e-01 9.817157939099e-01 9.830093286081e-01 9.842300454967e-01 9.853841419325e-01 9.864647942598e-01 9.876386583093e-01 9.888031113690e-01 9.898777510333e-01 9.908784739668e-01 9.918122598696e-01 9.926851647592e-01 9.935024813256e-01 9.942688652253e-01 9.949884357570e-01 9.956648569956e-01 9.963014038306e-01 9.969010162042e-01 9.974663440322e-01 9.979997846936e-01 9.985035145427e-01 9.989795155741e-01 9.994295981286e-01 9.998793128903e-01 1.000000000000e+00 1.000000000000e+00 1.000000000000e+00 1.000000000000e+00 1.000000000000e+00 1.000000000000e+00 1.000000000000e+00 1.000000000000e+00 1.000000000000e+00 1.000000000000e+00 1.000000000000e+00 1.000000000000e+00 1.000000000000e+00 1.000000000000e+00 1.000000000000e+00 1.000000000000e+00 1.000000000000e+00 1.000000000000e+00 1.000000000000e+00 1.000000000000e+00 1.000000000000e+00 1.000000000000e+00 1.000000000000e+00 1.000000000000e+00 1.000000000000e+00 1.000000000000e+00 1.000000000000e+00 1.000000000000e+00 1.000000000000e+00 1.000000000000e+00 1.000000000000e+00 1.000000000000e+00 1.000000000000e+00 1.000000000000e+00 1.000000000000e+00 1.000000000000e+00 1.000000000000e+00 1.000000000000e+00 1.000000000000e+00 1.000000000000e+00 1.000000000000e+00 1.000000000000e+00 1.000000000000e+00 1.000000000000e+00 1.000000000000e+00 1.000000000000e+00 1.000000000000e+00 1.000000000000e+00 1.000000000000e+00 1.000000000000e+00 1.000000000000e+00 1.000000000000e+00 1.000000000000e+00 1.000000000000e+00 1.000000000000e+00 1.000000000000e+00 1.000000000000e+00 1.000000000000e+00 1.000000000000e+00 1.000000000000e+00 1.000000000000e+00 1.000000000000e+00 1.000000000000e+00 1.000000000000e+00 1.000000000000e+00 1.000000000000e+00 1.000000000000e+00 1.000000000000e+00 1.000000000000e+00 1.000000000000e+00 1.000000000000e+00 1.000000000000e+00 1.000000000000e+00 1.000000000000e+00 1.000000000000e+00 1.000000000000e+00 1.000000000000e+00 1.000000000000e+00 1.000000000000e+00 1.000000000000e+00 1.000000000000e+00 1.000000000000e+00 1.000000000000e+00 1.000000000000e+00 1.000000000000e+00 1.000000000000e+00 1.000000000000e+00 1.000000000000e+00 1.000000000000e+00 1.000000000000e+00 1.000000000000e+00 1.000000000000e+00 1.000000000000e+00 1.000000000000e+00 1.000000000000e+00 1.000000000000e+00 1.000000000000e+00 1.000000000000e+00 1.000000000000e+00 1.000000000000e+00 1.000000000000e+00 1.000000000000e+00 1.000000000000e+00 1.000000000000e+00 1.000000000000e+00 1.000000000000e+00 1.000000000000e+00 1.000000000000e+00 1.000000000000e+00 1.000000000000e+00 1.000000000000e+00 1.000000000000e+00 1.000000000000e+00 1.000000000000e+00 1.000000000000e+00 1.000000000000e+00 1.000000000000e+00 1.000000000000e+00 1.000000000000e+00 1.000000000000e+00 1.000000000000e+00 1.000000000000e+00 
        </DataArray>
      </PointData>
      <CellData>
      </CellData>
    </Piece>
  </UnstructuredGrid>
</VTKFile>
