<VTKFile type="UnstructuredGrid" version="1.0" byte_order="LittleEndian" header_type="UInt64">
  <UnstructuredGrid>
    <Piece NumberOfPoints="1167" NumberOfCells="1062">
      <PointData Scalars="PRESSURE1">
        <DataArray type="Float64" Name="PRESSURE1" format="ascii" RangeMin="0" RangeMax="52502288.192">
          23330235.904 23330346.5 23330677.612 23331227.063 23331991.294 23332965.204
          23334142.207 23335514.101 23337071.102 24978114.677 24978162.807 24978307.157
          24978547.591 24978883.817 24979315.316 24979841.219 24980460.177 24981170.245
          24981968.704 26623763.621 26623749.679 26623708.435 26623641.698 26623552.351
          26623444.268 26623322.126 26623191.199 26623057.15 26622925.764 26622802.729
          28267146.891 28267071.535 28266846.695 28266475.997 28265965.384 28265322.93
          28264558.633 28263684.136 28262712.431 28261657.535 28260534.159 28259357.382
          28258142.333 28250837.757 28249731.824 28248683.838 28247700.977 28246789.312
          29908192.286 29908056.431 29907650.668 29906980.382 29906054.405 29904884.818
          29903486.699 29901877.776 29900078.09 29898109.567 29895995.65 29893760.85
          29891430.37 29889029.713 29886584.342 29884119.339 29881659.173 29879227.412
          29876846.566 29874537.897 29872321.314 29870215.289 29868236.778 29866401.215
          29864722.457 29863212.83 29861883.093 29860742.518 29859798.853 29859058.408
          29858526.055 29858205.264 29858098.108 31546786.849 31546591.605 31546008.238
          31545043.782 31543709.813 31542022.221 31540000.905 31537669.411 31535054.509
          31532185.742 31529094.949 31525815.779 31522383.217 31518833.11 31515201.744
          31511525.416 31507840.077 31504180.983 31500582.4 31497077.333 31493697.302
          31490472.13 31487429.787 31484596.225 31481995.256 31479648.446 31477575.017
          31475791.773 31474313.038 31473150.602 31472313.675 31471808.876 31471640.157
          33182773.089 33182519.793 33181762.787 33180510.674 33178777.625 33176583.133
          33173951.686 33170912.36 33167498.367 33163746.535 33159696.792 33155391.603
          33150875.434 33146194.206 33141394.766 33136524.409 33131630.385 33126759.49
          33121957.632 33117269.485 33112738.126 33108404.729 33104308.262 33100485.248
          33096969.477 33093791.83 33090980.029 33088558.502 33086548.18 33084966.404
          33083826.76 33083139.05 33082909.148 34815946.529 34815636.763 34814710.844
          34813178.853 34811057.416 34808369.441 34805143.771 34801414.747 34797221.721
          34792608.5 34787622.773 34782315.505 34776740.317 34770952.891 34765010.357
          34758970.725 34752892.312 34746833.221 34740850.823 34735001.28 34729339.088
          34723916.64 34718783.818 34713987.606 34709571.728 34705576.3 34702037.528
          34698987.401 34696453.461 34694458.547 34693020.641 34692152.685 34691862.499
          36446055.023 36445690.683 36444601.514 36442798.989 36440302.06 36437136.868
          36433336.39 36428939.97 36423992.808 36418545.379 36412652.802 36406374.192
          36399771.99 36392911.288 36385859.155 36378683.989 36371454.849 36364240.84
          36357110.496 36350131.193 36343368.582 36336886.025 36330744.087 36325000.008
          36319707.236 36314914.959 36310667.683 36307004.843 36303960.439 36301562.741
          36299834.01 36298790.308 36298441.325 38072800.532 38072383.908 38071138.327
          38069076.583 38066219.822 38062597.243 38058245.735 38053209.386 38047538.958
          38041291.254 38034528.479 38027317.531 38019729.272 38011837.812 38003719.755
          37995453.462 37987118.324 37978794.032 37970559.874 37962494.033 37954672.911
          37947170.465 37940057.555 37933401.331 37927264.622 37921705.377 37916776.119
          37912523.461 37908987.649 37906202.181 37904193.463 37902980.556 37902574.969
          39695843.923 39695377.793 39693984.102 39691676.888 39688479.357 39684423.595
          39679550.171 39673907.654 39667552.036 39660546.119 39652958.791 39644864.312
          39636341.527 39627473.087 39618344.622 39609043.966 39599660.295 39590283.359
          39581002.646 39571906.6 39563081.834 39554612.35 39546578.793 39539057.702
          39532120.812 39525834.375 39520258.515 39515446.65 39511444.94 39508291.841
          39506017.677 39504644.356 39504185.105 41314813.307 41314301.026 41312769.274
          41310233.243 41306718.068 41302258.519 41296898.602 41290691.059 41283696.783
          41275984.151 41267628.307 41258710.384 41249316.668 41239537.787 41229467.811
          41219203.389 41208842.847 41198485.3 41188229.754 41178174.212 41168414.792
          41159044.852 41150154.127 41141827.896 41134146.165 41127182.895 41121005.268
          41115673.011 41111237.776 41107742.604 41105221.467 41103698.894 41103189.716
          42929316.071 42928761.668 42927103.903 42924359.029 42920553.951 42915725.902
          42909922.052 42903198.964 42895622.02 42887264.722 42878207.939 42868539.092
          42858351.292 42847742.457 42836814.362 42825671.72 42814421.195 42803170.446
          42792027.152 42781098.011 42770487.791 42760298.342 42750627.663 42741568.95
          42733209.715 42725630.898 42718906.072 42713100.671 42708271.314 42704465.191
          42701719.558 42700061.329 42699506.77 44538954.466 44538362.691 44536593.127
          44533662.986 44529600.75 44524445.865 44518248.316 44511068.098 44502974.606
          44494045.906 44484367.979 44474033.86 44463142.718 44451798.961 44440111.216
          44428191.335 44416153.386 44404112.585 44392184.274 44380482.844 44369120.684
          44358207.14 44347847.478 44338141.872 44329184.417 44321062.196 44313854.385
          44307631.428 44302454.294 44298373.814 44295430.123 44293652.218 44293057.627
          46143343.941 46142720.296 46140855.378 46137767.234 46133485.7 46128052.133
          46121518.948 46113949.092 46105415.398 46095999.877 46085792.879 46074892.244
          46063402.347 46051433.14 46039099.077 46026518.133 46013810.652 46001098.294
          45988502.909 45976145.409 45964144.646 45952616.319 45941671.831 45931417.259
          45921952.255 45913369.087 45905751.649 45899174.616 45893702.612 45889389.542
          45886277.952 45884398.606 45883770.079 47742133.21 47741483.894 47739542.201
          47736326.836 47731868.757 47726210.863 47719407.545 47711524.154 47702636.32
          47692829.233 47682196.792 47670840.739 47658869.624 47646397.873 47633544.668
          47620432.883 47607187.928 47593936.632 47580806.054 47567922.336 47555409.506
          47543388.329 47531975.13 47521280.677 47511409.069 47502456.693 47494511.213
          47487650.661 47481942.582 47477443.308 47474197.323 47472236.772 47471581.087
          49335024.161 49334356.003 49332357.991 49329049.291 49324461.713 49318639.276
          49311637.862 49303524.562 49294377.103 49284283.006 49273338.799 49261649.066
          49249325.469 49236485.702 49223252.418 49209752.077 49196113.826 49182468.241
          49168946.222 49155677.703 49142790.517 49130409.1 49118653.38 49107637.526
          49097468.892 49088246.838 49080061.793 49072994.204 49067113.758 49062478.535
          49059134.438 49057114.605 49056439.092 50921789.781 50921110.128 50919077.69
          50915711.976 50911045.272 50905122.33 50897999.901 50889746.199 50880440.184
          50870170.844 50859036.296 50847142.886 50834604.168 50821539.846 50808074.68
          50794337.34 50780459.208 50766573.205 50752812.529 50739309.463 50726194.11
          50713593.182 50701628.758 50690417.113 50680067.538 50670681.242 50662350.288
          50655156.631 50649171.219 50644453.226 50641049.384 50638993.463 50638305.878
          52502288.192 52501604.688 52499560.656 52496175.772 52491482.44 52485525.703
          52478362.561 52470061.646 52460702.306 52450374.041 52439175.472 52427213.529
          52414602.532 52401462.741 52387919.627 52374102.628 52360143.867 52346177.08
          52332336.198 52318754.336 52305562.32 52292887.66 52280853.12 52269575.718
          52259165.361 52249723.911 52241343.948 52234107.962 52228087.291 52223341.513
          52219917.598 52217849.57 52217157.919 21680304.87 21680131.754 21680822.869
          21681681.512 21682873.843 21684390.092 21686217.776 21688341.719 21690744.103
          23338801.759 21693404.568 24982851.949 23340692.93 26622693.407 24983815.343
          26622602.589 28256903.924 26622534.352 28251993.305 26622606.898 26622535.41
          26622704.156 26622824.063 26622962.641 26623115.222 28245953.848 26623276.606
          28255656.563 28254413.957 28253188.931 28245198.644 28244526.917 28243941.129
          28243443.149 28243034.283 28242715.502 28242487.441 28242350.433 28242304.775
          0 706.4290935 2818.0074388 6312.3424472 11152.185422 17286.315038
          24649.935552 33165.971807 42745.719152 53290.363159 64691.871205 76834.666764
          89596.623152 102850.78685 116466.38174 130310.49537 144249.04277 158148.38821
          171876.20607 185302.98699 198302.80136 210754.70288 222543.36271 233560.33226
          243704.56893 252883.58146 261013.80552 268021.6 273843.4793 278426.96339
          281730.64066 283724.85253 284391.56416 1684586.2822 1685288.5187 1687387.6983
          1690861.4588 1695672.82 1701770.8383 1709091.1889 1717557.2036 1727080.7732
          1737563.6313 1748898.4561 1760970.3161 1773657.8747 1786834.8836 1800371.3948
          1814135.2315 1827993.1515 1841812.2398 1855460.9871 1868810.5726 1881735.8389
          1894116.461 1905837.8027 1916791.961 1926878.5015 1936005.3736 1944089.5134
          1951057.6162 1956846.5864 1961404.1635 1964689.2083 1966672.1548 1967335.1174
          3366165.7985 3366855.6273 3368917.7731 3372330.2647 3377056.8029 3383047.4057
          3390238.9014 3398556.0733 3407912.3924 3418211.4216 3429347.763 3441208.6018
          3453674.7574 3466622.2774 3479923.4996 3493448.6181 3507066.6978 3520647.1727
          3534060.7703 3547180.9069 3559884.5104 3572053.3072 3583574.5285 3594342.0769
          3604257.1144 3613229.1062 3621176.2769 3628026.511 3633717.6685 3638198.3371
          3641427.9747 3643377.5123 3644029.2901 5044762.4223 5045431.9305 5047433.2797
          5050745.1885 5055332.5417 5061146.8062 5068126.895 5076199.7976 5085281.7616
          5095279.1979 5106090.0378 5117604.7881 5129707.9767 5142279.2618 5155194.8953
          5168328.8014 5181553.9937 5194743.5865 5207772.1367 5220516.5535 5232857.3411
          5244679.4066 5255873.1971 5266335.391 5275969.9216 5284688.5513 5292411.7676
          5299069.2253 5304600.5004 5308955.3876 5312094.4944 5313989.3647 5314622.9138
          6720415.2128 6721056.8644 6722975.0027 6726149.2723 6730546.1012 6736119.1236
          6742809.9313 6750548.7216 6759255.3992 6768840.4502 6779206.2287 6790247.9504
          6801855.0776 6813912.377 6826301.3032 6838901.0385 6851589.8348 6864245.9932
          6876749.1342 6888981.0813 6900827.048 6912176.4261 6922923.8692 6932969.9807
          6942222.2878 6950595.8229 6958013.9805 6964408.959 6969722.4985 6973906.1803
          6976921.9947 6978742.5012 6979351.187 8393176.8285 8393783.7333 8395598.0128
          8398600.5259 8402759.6141 8408031.6672 8414361.5744 8421683.6525 8429922.3123
          8438993.2383 8448804.232 8459256.5039 8470245.6005 8481662.7574 8493395.8406
          8505330.6776 8517351.9608 8529344.5304 8541194.2129 8552789.0238 8564019.9268
          8574781.9519 8584974.8736 8594504.228 8603281.8976 8611227.0285 8618266.5076
          8624335.7607 8629379.0984 8633350.3802 8636213.2202 8637941.4813 8638519.3163
          10063111.774 10063677.727 10065369.643 10068169.769 10072048.791 10076966.263
          10082871.131 10089702.434 10097390.078 10105855.754 10115013.867 10124772.554
          10135034.7 10145699.027 10156661.108 10167814.442 10179051.445 10190264.49
          10201346.841 10212193.611 10222702.651 10232775.437 10242317.874 10251241.106
          10259462.239 10266905.067 10273500.695 10279188.145 10283914.867 10287637.225
          10290320.859 10291941.012 10292482.724 11730293.951 11730813.541 11732366.921
          11734937.937 11738499.932 11743016.081 11748439.917 11754715.894 11761780.141
          11769561.206 11777980.956 11786955.428 11796395.803 11806209.309 11816300.213
          11826570.723 11836921.957 11847254.816 11857470.917 11867473.412 11877167.872
          11886463.052 11895271.72 11903511.348 11911104.884 11917981.361 11924076.583
          11929333.637 11933703.465 11937145.265 11939626.916 11941125.232 11941626.234
          13394803.906 13395272.565 13396673.722 13398993.004 13402206.674 13406281.925
          13411177.332 13416843.343 13423222.916 13430252.182 13437861.207 13445974.739
          13454513.056 13463392.761 13472527.649 13481829.504 13491208.966 13500576.308
          13509842.282 13518918.857 13527720.038 13536162.567 13544166.701 13551656.858
          13558562.35 13564817.967 13570364.631 13575149.899 13579128.509 13582262.781
          13584523.026 13585887.801 13586344.174 15056725.731 15057139.697 15058377.438
          15060426.484 15063266.233 15066868.216 15071196.407 15076207.712 15081852.415
          15088074.803 15094813.728 15102003.308 15109573.567 15117451.178 15125560.136
          15133822.513 15142159.137 15150490.348 15158736.665 15166819.536 15174661.986
          15182189.35 15189329.897 15196015.528 15202182.371 15207771.427 15212729.105
          15217007.791 15220566.298 15223370.329 15225392.797 15226614.164 15227022.6
          16716143.467 16716499.825 16717565.381 16719329.695 16721775.46 16724878.746
          16728609.241 16732930.61 16737800.868 16743172.852 16748994.679 16755210.292
          16761759.989 16768581.008 16775608.1 16782774.137 16790010.698 16797248.698
          16804418.985 16811452.975 16818283.254 16824844.208 16831072.621 16836908.294
          16842294.623 16847179.179 16851514.241 16855257.318 16858371.594 16860826.362
          16862597.346 16863667.014 16864024.751 18373137.454 18373434.009 18374320.891
          18375789.707 18377826.567 18380412.224 18383522.255 18387127.297 18391193.355
          18395682.08 18400551.167 18405754.708 18411243.622 18416966.081 18422867.97
          18428893.355 18434984.971 18441084.726 18447134.213 18453075.245 18458850.383
          18464403.492 18469680.279 18474628.85 18479200.25 18483348.986 18487033.546
          18490216.861 18492866.763 18494956.354 18496464.357 18497375.372 18497680.084
          20027780.121 20028015.395 20028719.161 20029885.099 20031502.787 20033557.733
          20036031.47 20038901.735 20042142.624 20045724.764 20049615.575 20053779.486
          20058178.241 20062771.174 20067515.548 20072366.891 20077279.383 20082206.235
          20087100.111 20091913.561 20096599.485 20101111.584 20105404.865 20109436.106
          20113164.364 20116551.435 20119562.34 20122165.747 20124334.393 20126045.428
          20127280.754 20128027.246 20128276.965 21680131.754 21680304.87 21680822.869
          21681681.512 21682873.843 21684390.092 21686217.776 21688341.719 21690744.103
          21693404.568 21696300.291 21699406.096 21702694.626 21706136.475 21709700.414
          21713353.6 21717061.839 21720789.869 21724501.677 21728160.835 21731730.874
          21735175.67 21738459.858 21741549.246 21744411.247 21747015.292 21749333.265
          21751339.874 21753013.038 21754334.197 21755288.615 21755865.59 21756058.642
          23338801.759 23340692.93 23342729.789 23344895.829 23347172.925 23349541.373
          23351980.031 23354466.44 23356977.02 23359487.269 23361972 23364405.654
          23366762.559 23369017.306 23371145.061 23373121.93 23374925.328 23376534.313
          23377929.962 23379095.636 23380017.317 23380683.819 23381087.018 23381221.97
          24982851.949 24983815.343 24984853.126 24985958.348 24987122.802 24988337.038
          24989590.379 24990871.013 24992166.084 24993461.853 24994743.87 24995997.206
          24997206.685 24998357.143 24999433.721 25000422.127 25001308.94 25002081.877
          25002730.043 25003244.186 25003616.878 25003842.697 25003918.342 26622693.407
          26622602.589 26622534.352 26622491.882 26622477.348 26622491.858 26622535.41
          26622606.898 26622704.156 26622824.063 26622962.641 26623115.222 26623276.606
          26623441.256 26623603.499 26623757.718 26623898.585 26624021.188 26624121.277
          26624195.362 26624240.874 26624256.221 28256903.924 28255656.563 28254413.957
          28253188.931 28251993.305 28245953.848 28245198.644 28244526.917 28243941.129
          28243443.149 28243034.283 28242715.502 28242487.441 28242350.433 28242304.775
          23330235.904 23330346.5 23330677.612 23331227.063 23331991.294 23332965.204
          23334142.207 23335514.101 23337071.102 24981170.245 24981968.704 26622925.764
          26622802.729 28260534.159 28259357.382 28258142.333 28250837.757 28249731.824
          28248683.838 28247700.977 28246789.312 29891430.37 29889029.713 29886584.342
          29884119.339 29881659.173 29879227.412 29876846.566 29868236.778 29866401.215
          29864722.457 29863212.83 29861883.093 29860742.518 29859798.853 29859058.408
          29858526.055 29858205.264 29858098.108
        </DataArray>
        <DataArray type="Float64" Name="TEMPERATURE1" format="ascii" RangeMin="19.999999976" RangeMax="169.9999998">
          52.514071308 52.696573584 53.241849403 54.143259594 55.389913494 56.966920721
          58.855721758 61.034480724 63.478518788 55.357361646 55.540040235 56.085894249
          56.988429561 58.236987959 59.816985611 61.710226496 63.89527451 66.347864039
          69.041330035 58.398868472 58.580391185 59.122847566 60.019949244 61.261369711
          62.832965664 64.717068928 66.892832529 69.336613296 72.022372924 74.922080639
          61.683903883 61.863054799 62.398481656 63.284149531 64.510140992 66.062858366
          67.925290594 70.077329946 72.496122669 75.1564371 78.031034076 81.091026699
          84.30621951 105.07361826 108.4785952 111.78221107 114.95380654 117.96374198
          65.263636811 65.439288979 65.964316976 66.8329738 68.035807487 69.559842982
          71.388822113 73.503489 75.881906544 78.49978958 81.330841318 84.347081501
          87.519158135 90.816636981 94.208266844 97.662223393 101.14633154 104.62827586
          108.07580407 111.45693131 114.74015119 117.89465994 120.8905972 123.69930483
          126.29360288 128.64808005 130.73939008 132.54655114 134.0512313 135.23801897
          136.09465788 136.61224485 136.78537752 69.194434783 69.365515578 69.876934501
          70.723255142 71.895528677 73.381454793 75.165594545 77.229623918 79.552615794
          82.111337871 84.880554854 87.833325308 90.941285712 94.174917406 97.503794803
          100.89681645 104.32242158 107.74879853 111.14409034 114.47660489 117.71503466
          120.82869147 123.78775918 126.56356521 129.12886973 131.45816802 133.5280005
          135.31726136 136.8074967 137.98318131 138.83196324 139.34486669 139.51644333
          73.536546134 73.701998208 74.196640384 75.015360255 76.149734791 77.588171048
          79.316092682 81.3161626 83.568531675 86.051102491 88.739798847 91.60883226
          94.630959894 97.777729781 101.01971272 104.32672165 107.66802183 111.01253678
          114.3290553 117.58644537 120.75388016 123.80107983 126.69857242 129.41797301
          131.93228066 134.21618771 136.24639559 138.00192904 139.46443802 140.61847826
          141.45175832 141.95534419 142.12381237 78.351969095 78.510710488 78.985332385
          79.771053467 80.859989351 82.241274412 83.901223712 85.823526987 87.989466271
          90.37814819 92.966742828 95.730722314 98.644094399 101.67962765 104.80906782
          108.00334614 111.23278279 114.46728939 117.67657564 120.83036455 123.89862107
          126.85179722 129.66109564 132.29875154 134.73833086 136.95504011 138.92604186
          140.63076717 142.05121607 143.17223511 143.98176241 144.47102977 144.63471389
          83.70139668 83.852284982 84.303460608 85.050477873 86.085999833 87.399903269
          88.979418418 90.809297228 92.872003108 95.147914646 97.615537174 100.25171599
          103.03184779 105.9300874 108.91954956 111.97250618 115.0605825 118.15495447
          121.2265526 124.24627532 127.18521623 130.01490745 132.70758095 135.23644663
          137.57598581 139.70225474 141.59319298 143.22892782 144.5920665 145.6679656
          146.44496881 146.9146024 147.07172198 89.640215224 89.782020688 90.206062594
          90.908236307 91.881763095 93.117280116 94.60296099 96.324661366 98.266084186
          100.40895844 102.73322632 105.21723386 107.8379224 110.57101808 113.39121944
          116.27238364 119.18771354 122.1099483 125.01156106 127.86496679 130.64274363
          133.31786939 135.86397468 138.25561136 140.46853462 142.47999395 144.26902768
          145.81675324 147.10664502 148.12479056 148.86011583 149.30457098 149.45326892
          96.213671767 96.345065224 96.737988944 97.388689214 98.290963172 99.436236272
          100.81366603 102.41026835 104.21106127 106.19922194 108.35625214 110.66214876
          113.09557654 115.6340414 118.25406381 120.93135271 123.64098199 126.35757139
          129.0554747 131.70897795 134.29250997 136.78086693 139.1494517 141.37452654
          143.43347801 145.30508908 146.96981408 148.41004875 149.61038887 150.5578678
          151.24216589 151.65578212 151.79416318 103.45150627 103.57106618 103.92861256
          104.52075877 105.34190644 106.38431144 107.63817401 109.0917473 110.73146324
          112.54206943 114.50677552 116.60740459 118.82454854 121.1377249 123.52553528
          125.96582548 128.43584898 130.912435 133.37216369 135.79155016 138.14723985
          140.41621591 142.57601951 144.60498172 146.48246541 148.18911336 149.70709821
          151.02036778 152.11487924 152.97881452 153.60276952 153.97990984 154.10608692
          111.3625435 111.46878567 111.78650975 112.31272017 113.04246323 113.96888412
          115.08330351 116.37531168 117.83287674 119.44246389 121.18916316 123.05682272
          125.02818644 127.08503353 129.20832082 131.3783267 133.574799 135.77710688
          137.9643992 140.11577048 142.21043659 144.22792049 146.14824892 147.95215846
          149.62131032 151.13850961 152.4879262 153.65531078 154.62820152 155.39611319
          155.95070415 156.28591277 156.39806018 119.92992134 120.02135117 120.29477928
          120.74763141 121.37564995 122.17294181 123.13204342 124.244 125.49845784
          126.88376567 128.38708428 129.99450098 131.6911488 133.46132721 135.28862603
          137.15605129 139.04615412 140.94116304 142.82312256 144.67403662 146.47602147
          148.21146536 149.86319799 151.41466694 152.85012154 154.15479977 155.3151167
          156.31884812 157.15530655 157.81550187 158.2922833 158.58045534 158.67686508
          129.10773734 129.18292163 129.40776585 129.78015164 130.29657546 130.95218724
          131.74084375 132.65517356 133.68665222 134.82568613 136.06170257 137.38324497
          138.77807077 140.23325256 141.73528086 143.27016909 144.82356022 146.3808376
          147.9272388 149.44797533 150.92835795 152.35392812 153.71059652 154.98478754
          156.16358884 157.23490375 158.18760419 159.01168018 159.69838241 160.24035289
          160.6317401 160.86829305 160.94743233 138.81986454 138.87751569 139.04992497
          139.33546528 139.73144552 140.23414021 140.83883059 141.5398543 142.33066351
          143.20388911 144.15141091 145.16443031 146.23354749 147.3488381 148.49993409
          149.67610448 150.86633837 152.05942996 153.24406653 154.40892082 155.54274663
          156.6344797 157.67334297 158.64895706 159.5514534 160.37159046 161.10086916
          161.73164682 162.25724454 162.67204699 162.97158874 163.15262661 163.21319243
          148.96149044 149.00055202 149.11736932 149.31083618 149.57912744 149.91971289
          150.3293911 150.80431738 151.34004926 151.93158438 152.57341385 153.2595683
          153.98367175 154.73899388 155.51850553 156.31493238 157.12081546 157.92856327
          158.73051783 159.51901094 160.28643539 161.0253065 161.72833974 162.38851854
          162.99917698 163.55407113 164.04746331 164.47419192 164.82975027 165.11034665
          165.31296935 165.43542808 165.47639648 159.40357923 159.42330401 159.48229044
          159.57998095 159.71545141 159.88742385 160.09427841 160.33407265 160.60455959
          160.90321138 161.22724293 161.57363758 161.9391752 162.32045395 162.71392301
          163.11590881 163.52264474 163.93029937 164.33500714 164.73289953 165.12013834
          165.49294947 165.84765926 166.18073118 166.48880487 166.76873444 167.01762834
          167.23288676 167.41223891 167.55377559 167.65597925 167.71774747 167.73841174
          169.9999998 169.9999998 169.9999998 169.9999998 169.9999998 169.9999998
          169.9999998 169.9999998 169.9999998 169.9999998 169.9999998 169.9999998
          169.9999998 169.9999998 169.9999998 169.9999998 169.9999998 169.9999998
          169.9999998 169.9999998 169.9999998 169.9999998 169.9999998 169.9999998
          169.9999998 169.9999998 169.9999998 169.9999998 169.9999998 169.9999998
          169.9999998 169.9999998 169.9999998 50.01056553 49.829705736 50.550889688
          51.443967416 52.678795544 54.240338322 56.109870909 58.26538536 60.682039973
          66.160767356 63.332629041 71.947039227 69.052222649 78.006102781 75.034806581
          81.243568322 87.64542155 84.602704577 101.59873469 102.0834425 98.604841203
          105.48888448 108.78998792 111.9564642 114.95912383 120.78364013 117.77009918
          91.076727887 94.567777236 98.085981154 123.38664521 125.74769482 127.84379889
          129.65432424 131.1612613 132.34948496 133.20697274 133.7249973 133.89826348
          19.999999976 19.999999976 19.999999976 19.999999976 19.999999976 19.999999976
          19.999999976 19.999999976 19.999999976 19.999999976 19.999999976 19.999999976
          19.999999976 19.999999976 19.999999976 19.999999976 19.999999976 19.999999976
          19.999999976 19.999999976 19.999999976 19.999999976 19.999999976 19.999999976
          19.999999976 19.999999976 19.999999976 19.999999976 19.999999976 19.999999976
          19.999999976 19.999999976 19.999999976 22.209934011 22.231832237 22.297245272
          22.405334175 22.554723893 22.743536036 22.969432305 23.22966563 23.521137412
          23.840457387 24.184004367 24.547984912 24.928489324 25.321542722 25.723151671
          26.129344905 26.536209368 26.939920759 27.336770592 27.723188905 28.095764669
          28.451263056 28.786641956 29.099066389 29.385922599 29.644830524 29.873656608
          30.070524911 30.233828304 30.362237411 30.45470932 30.510493835 30.529138966
          24.420521352 24.463926633 24.593582507 24.807823299 25.103918445 25.478137725
          25.925838205 26.441565907 27.019170061 27.65192192 28.332636015 29.053786682
          29.807619774 30.586253959 31.381773733 32.186309737 32.992110748 33.791603727
          34.577447688 35.342577758 36.080245952 36.784054567 37.447989048 38.066445219
          38.634257746 39.146723802 39.599628721 39.989266826 40.312464084 40.566594912
          40.749600131 40.859998202 40.896897099 26.632633173 26.696779736 26.888389749
          27.2049944 27.64254712 28.195520509 28.857035396 29.619012472 30.472342304
          31.407062172 32.412536365 33.477629444 34.590872418 35.740613071 36.915153916
          38.102871037 39.292320587 40.4723271 41.632062745 42.76111153 43.849529077
          44.887890827 45.867339942 46.779626347 47.617148244 48.372985988 49.040939636
          49.615558605 50.092175013 50.466927726 50.73678905 50.899580629 50.953990902
          28.847652141 28.931432325 29.181685558 29.595176918 30.166603906 30.888725308
          31.752529379 32.747435848 33.861517577 35.081735623 36.394174137 37.784270966
          39.237033262 40.737237853 42.269608767 43.818976143 45.370411351 46.90934576
          48.421668967 49.89381609 51.312839667 52.666476276 53.943202437 55.132289721
          56.223852114 57.208895071 58.079357647 58.828156766 59.449223708 59.93754168
          60.289173894 60.501290892 60.57218631 31.067779249 31.169788427 31.474487729
          31.977925468 32.673625258 33.552743365 34.604276423 35.815308516 37.171284271
          38.656296617 40.253375779 41.944771231 43.712216693 45.537174222 47.401051838
          49.28539585 51.17205592 53.043327355 54.882070524 56.671814047 58.39684192
          60.04227141 61.594120851 63.03937374 64.366036817 65.563197296 66.621075186
          67.531075265 68.285833102 68.879259259 69.306575403 69.564346007 69.650500079
          33.296356924 33.414948393 33.769174481 34.354429283 35.163164784 36.185075133
          37.407340545 38.814915924 40.39085178 42.116629953 43.97250294 45.93782232
          47.991349472 50.111538524 52.276790896 54.465676643 56.657126817 58.830595233
          60.966197234 63.044825375 65.048250766 66.959209251 68.761481052 70.439961656
          71.980731311 73.371118685 74.599764911 75.656681911 76.533310077 77.222567864
          77.718897982 78.018302693 78.118372726 35.538215557 35.6715614 36.069855561
          36.727912248 37.637233661 38.786218621 40.160437978 41.742961452 43.514719601
          45.454883737 47.5412483 49.750601898 52.059076285 54.442465071 56.876508213
          59.337140143 61.800702992 64.24412695 66.645082678 68.982109923 71.234728031
          73.383532336 75.410281488 77.297978198 79.030946669 80.594906875 81.977047461
          83.166095357 84.152382224 84.927904792 85.486378467 85.823280964 85.935885599
          37.800050953 37.946205243 38.382758263 39.104029089 40.10070896 41.360090588
          42.866370363 44.601007497 46.543121045 48.669906923 50.957056725 53.379164145
          55.910106059 58.523390452 61.192465522 63.890989198 66.593059261 69.273408223