<?xml version="1.0"?>
<VTKFile type="UnstructuredGrid" version="0.1" byte_order="LittleEndian" header_type="UInt32">
  <UnstructuredGrid>
    <FieldData>
      <DataArray type="Int8" Name="OGS_VERSION" NumberOfTuples="41" format="ascii" RangeMin="45" RangeMax="121">
        54 46 50 46 48 45
        49 57 48 45 103 49
        56 98 99 101 100 55
        97 50 46 100 105 114
        116 121 46 50 48 49
        57 48 53 50 49 48
        56 50 51 48 49
      </DataArray>
    </FieldData>
    <Piece NumberOfPoints="208" NumberOfCells="50">
      <PointData>
        <DataArray type="Float64" Name="pressure" format="ascii" RangeMin="4504.6354456" RangeMax="169958.83651">
          4584.0171397 4504.6354456 4504.6354456 4584.0171397 4584.0171397 4504.6354456
          4504.6354456 4584.0171397 4823.9347601 4823.9347601 4823.9347601 4823.9347601
          5229.7174457 5229.7174457 5229.7174457 5229.7174457 5810.2942122 5810.2942122
          5810.2942122 5810.2942122 6578.2616841 6578.2616841 6578.2616841 6578.2616841
          7549.9787541 7549.9787541 7549.9787541 7549.9787541 8745.6856476 8745.6856476
          8745.6856476 8745.6856476 10189.645762 10189.645762 10189.645762 10189.645762
          11910.308145 11910.308145 11910.308145 11910.308145 13940.488139 13940.488139
          13940.488139 13940.488139 16317.563462 16317.563462 16317.563462 16317.563462
          19083.682682 19083.682682 19083.682682 19083.682682 22285.982899 22285.982899
          22285.982899 22285.982899 25976.813229 25976.813229 25976.813229 25976.813229
          30213.9606 30213.9606 30213.9606 30213.9606 35060.874293 35060.874293
          35060.874293 35060.874293 40586.885668 40586.885668 40586.885668 40586.885668
          46867.419558 46867.419558 46867.419558 46867.419558 53984.193931 53984.193931
          53984.193931 53984.193931 62025.40458 62025.40458 62025.40458 62025.40458
          71085.891845 71085.891845 71085.891845 71085.891845 81267.286629 81267.286629
          81267.286629 81267.286629 92678.133306 92678.133306 92678.133306 92678.133306
          105433.9875 105433.9875 105433.9875 105433.9875 119657.48712 119657.48712
          119657.48712 119657.48712 24803.466466 24637.417531 24637.417531 24803.466466
          24803.466466 24637.417531 24637.417531 24803.466466 25302.871805 25302.871805
          25302.871805 25302.871805 26139.405366 26139.405366 26139.405366 26139.405366
          27319.359487 27319.359487 27319.359487 27319.359487 28851.551274 28851.551274
          28851.551274 28851.551274 30747.331076 30747.331076 30747.331076 30747.331076
          33020.592723 33020.592723 33020.592723 33020.592723 35687.785722 35687.785722
          35687.785722 35687.785722 38767.929188 38767.929188 38767.929188 38767.929188
          42282.627313 42282.627313 42282.627313 42282.627313 46256.086123 46256.086123
          46256.086123 46256.086123 50715.131255 50715.131255 50715.131255 50715.131255
          55689.226475 55689.226475 55689.226475 55689.226475 61210.492649 61210.492649
          61210.492649 61210.492649 67313.726863 67313.726863 67313.726863 67313.726863
          74036.421393 74036.421393 74036.421393 74036.421393 81418.782227 81418.782227
          81418.782227 81418.782227 89503.746841 89503.746841 89503.746841 89503.746841
          98337.000959 98337.000959 98337.000959 98337.000959 107966.99402 107966.99402
          107966.99402 107966.99402 118444.95311 118444.95311 118444.95311 118444.95311
          129824.89517 129824.89517 129824.89517 129824.89517 142163.63723 142163.63723
          142163.63723 142163.63723 155520.80455 155520.80455 155520.80455 155520.80455
          169958.83651 169958.83651 169958.83651 169958.83651
        </DataArray>
        <DataArray type="Float64" Name="q" NumberOfComponents="3" format="ascii" RangeMin="9.1877052637e-10" RangeMax="1.6710685149e-07">
          -1.8477960303e-09 5.5261759879e-23 8.2923790426e-23 -9.1877052637e-10 -5.2193505331e-23 -2.8891932543e-23
          -9.1877052637e-10 -5.7540484865e-23 2.7593904694e-23 -1.8477960303e-09 5.1398931486e-23 -2.5701987885e-23
          -1.8477960303e-09 -5.2020382928e-23 9.0752311797e-23 -9.1877052637e-10 1.4602395115e-23 -2.8891932543e-23
          -9.1877052637e-10 1.6035113963e-23 2.7593904694e-23 -1.8477960303e-09 -4.4383809486e-23 -2.7799633864e-23
          -3.7366901972e-09 -6.8602426584e-23 -5.2864257101e-23 -3.7366901972e-09 -7.0700072563e-23 5.806489636e-23
          -3.7366901972e-09 3.2643939748e-23 -4.2170298033e-23 -3.7366901972e-09 4.2954002957e-23 5.5199458664e-23
          -5.7080986809e-09 5.0927303896e-24 9.4394069071e-24 -5.7080986809e-09 1.5109332696e-24 5.7027722646e-23
          -5.7080986809e-09 3.1906622833e-23 1.0207198624e-23 -5.7080986809e-09 4.5274071667e-23 3.6969658774e-23
          -7.8040754537e-09 -7.7301604257e-23 -6.2715122349e-23 -7.8040754537e-09 -7.4052270703e-23 8.7150908798e-24
          -7.8040754537e-09 1.6705865732e-23 -7.9907748524e-23 -7.8040754537e-09 1.3840428036e-23 1.864125823e-23
          -1.0067618876e-08 2.2285356565e-23 4.3337898815e-23 -1.0067618876e-08 1.8703559445e-23 5.521110794e-23
          -1.0067618876e-08 3.4528680307e-23 3.3411731464e-23 -1.0067618876e-08 3.185519054e-23 3.8018481764e-23
          -1.2542962752e-08 5.5092330148e-24 -4.6409065681e-23 -1.2542962752e-08 -1.8463091543e-23 -5.1688128457e-24
          -1.2542962752e-08 1.5716431639e-23 -4.067819029e-23 -1.2542962752e-08 -2.3192883565e-24 -6.7043962789e-24
          -1.5275850743e-08 -1.9452525636e-23 5.3588573128e-23 -1.5275850743e-08 1.2910382839e-23 -3.6158391368e-23
          -1.5275850743e-08 -1.2748129357e-23 -6.4901392467e-25 -1.5275850743e-08 -3.9585891611e-23 -1.773139017e-24
          -1.8313787598e-08 -8.6384677788e-23 5.6439240134e-24 -1.8313787598e-08 -8.6768573647e-23 9.4678221758e-23
          -1.8313787598e-08 2.9459819727e-23 -1.993928608e-23 -1.8313787598e-08 3.0892538575e-23 1.0153322224e-22
          -2.1706263756e-08 -3.5050179483e-23 -9.3467145288e-23 -2.1706263756e-08 -3.4282387766e-23 1.1509261901e-22
          -2.1706263756e-08 1.3653992604e-22 -1.1863889704e-22 -2.1706263756e-08 1.3367448834e-22 1.0055970136e-22
          -2.5504949755e-08 4.910060062e-23 5.2290545279e-23 -2.5504949755e-08 4.3369725229e-23 -1.0345696547e-22
          -2.5504949755e-08 -8.5093617094e-24 9.5147090098e-24 -2.5504949755e-08 -2.4166404452e-23 -5.2290545279e-23
          -2.9763857308e-08 -5.7914292155e-23 -8.8622839404e-23 -2.9763857308e-08 -7.3777064068e-23 -3.4385252351e-23
          -2.9763857308e-08 8.7249509452e-23 -1.3446984254e-22 -2.9763857308e-08 1.29257554e-22 2.8242918619e-23
          -3.4539464334e-08 -5.9536826966e-23 5.9684309758e-24 -3.4539464334e-08 -6.2552868868e-23 1.9467586057e-22
          -3.4539464334e-08 1.6627068847e-22 -7.6512074696e-23 -3.4539464334e-08 1.404817492e-22 2.0613761135e-22
          -3.9890801777e-08 -1.4274164867e-22 -1.4900276019e-22 -3.9890801777e-08 -1.198181471e-22 2.2002151508e-22
          -3.9890801777e-08 5.0010468681e-23 -6.3451087652e-23 -3.9890801777e-08 3.8548717897e-23 1.9709801351e-22
          -4.5879500585e-08 -2.6210486173e-22 7.7763505442e-23 -4.5879500585e-08 -1.6683275101e-22 3.5208169033e-23
          -4.5879500585e-08 7.2589286148e-23 6.0982337607e-23 -4.5879500585e-08 3.4624480696e-24 1.8427001198e-23
          -5.2569797822e-08 -5.3632048817e-22 -2.2888721016e-22 -5.2569797822e-08 -5.5238898926e-22 2.4471815566e-22
          -5.2569797822e-08 1.557708093e-22 -1.4333553762e-22 -5.2569797822e-08 6.2240011181e-23 2.2179465409e-22
          -6.002850155e-08 5.0754961846e-23 -4.3165244624e-22 -6.002850155e-08 1.1450725791e-22 -1.0008459019e-22
          -6.002850155e-08 4.088391946e-22 -2.3312909922e-22 -6.002850155e-08 2.6485464305e-22 -1.901327631e-22
          -6.8324914731e-08 -4.8616794315e-22 -3.6183852499e-22 -6.8324914731e-08 -5.1984052875e-22 5.865770403e-22
          -6.8324914731e-08 2.040570211e-22 -2.8506670061e-24 -6.8324914731e-08 2.3578256492e-22 2.7343618545e-22
          -7.7530719116e-08 9.050839093e-22 2.4342012781e-22 -7.7530719116e-08 9.4366445361e-22 -8.0776927757e-22
          -7.7530719116e-08 -4.9760639538e-22 6.0032115271e-23 -7.7530719116e-08 -6.2173861223e-22 -5.998119301e-22
          -8.7719820727e-08 -2.364548774e-22 7.6813283106e-23 -8.7719820727e-08 -2.8844421427e-22 -1.0328306271e-22
          -8.7719820727e-08 -7.1170607659e-22 5.2299864699e-22 -8.7719820727e-08 -6.6585907345e-22 -1.4913006584e-22
          -9.8968159224e-08 -6.2775364031e-22 1.6591123368e-22 -9.8968159224e-08 -7.0184356206e-22 -2.1885079288e-22
          -9.8968159224e-08 2.5825425387e-22 5.1711092457e-22 -9.8968159224e-08 2.7810658857e-22 -6.902511601e-23
          -1.1135348408e-07 4.1732754279e-22 -6.501554336e-22 -1.1135348408e-07 4.2429279321e-22 8.2505966802e-22
          -1.1135348408e-07 5.8744655408e-22 -6.288777654e-22 -1.1135348408e-07 7.2027056326e-22 8.6191367042e-22
          -1.2495510105e-07 -1.346437453e-22 3.3701457875e-22 -1.2495510105e-07 -2.3840191917e-22 1.2383783073e-21
          -1.2495510105e-07 9.9408866567e-22 6.947976031e-22 -1.2495510105e-07 1.1430914259e-21 8.1347061158e-22
          -1.3985359302e-07 7.7766002573e-22 1.0446060719e-21 -1.3985359302e-07 8.799928661e-22 -1.3933960955e-21
          -1.3985359302e-07 -6.0015973561e-22 9.2834273073e-22 -1.3985359302e-07 -4.1062938934e-22 -9.5949539911e-22
          -1.5613051973e-07 2.3398612735e-23 5.1921113974e-24 -1.5613051973e-07 8.6213417028e-22 3.6538480303e-22
          -1.5613051973e-07 6.4907790562e-22 -7.7091527518e-22 -1.5613051973e-07 5.0374872911e-22 5.733421505e-22
          -1.6462383812e-07 1.0258745168e-22 -1.9377223534e-22 -1.6462383812e-07 -8.5690794743e-22 1.1882211922e-21
          -1.6462383812e-07 4.5378714257e-22 2.2214245961e-22 -1.6462383812e-07 7.108831599e-22 9.0655583991e-22
          -3.8510066026e-09 -5.8345927633e-23 8.5551672538e-23 -1.9218645957e-09 1.4138849585e-22 2.6469779602e-23
          -1.9218645957e-09 9.8612659582e-23 -9.8786562339e-23 -3.8510066026e-09 -3.6958009499e-23 5.6485837237e-23
          -3.8510066026e-09 1.1766537615e-22 8.5551672538e-23 -1.9218645957e-09 -1.7707177605e-22 2.4342012781e-22
          -1.9218645957e-09 -1.6561002527e-22 -1.5691823294e-22 -3.8510066026e-09 1.3178683546e-22 5.6485837237e-23
          -7.7311250046e-09 3.3411731464e-23 1.1331947999e-22 -7.7311250046e-09 4.7533190774e-23 1.4073948193e-22
          -7.7311250046e-09 2.8804981165e-23 2.7767807451e-23 -7.7311250046e-09 3.0340564598e-23 1.6366298349e-22
          -1.16694889e-08 2.2557848771e-22 3.2023341092e-22 -1.16694889e-08 1.4115094027e-22 -1.6401078901e-22
          -1.16694889e-08 -6.3514740479e-23 8.6501894873e-23 -1.16694889e-08 -1.3872878733e-22 -1.8079195684e-22
          -1.5695288822e-08 -1.6018035829e-22 8.2353200018e-23 -1.5695288822e-08 -1.3613273163e-22 2.0596370859e-22
          -1.5695288822e-08 8.1420033406e-23 5.942969845e-23 -1.5695288822e-08 1.6844820662e-23 2.3338371053e-22
          -1.9837798546e-08 1.5940403871e-22 1.0233284037e-22 -1.9837798546e-08 2.3544100224e-22 -3.6513019172e-22
          -1.9837798546e-08 -3.0079253456e-22 1.0233284037e-22 -1.9837798546e-08 -3.4244424574e-22 -5.0267120112e-22
          -2.4126397274e-08 1.9104263116e-22 1.7369940077e-22 -2.4126397274e-08 -6.6023844799e-23 -1.5172612154e-22
          -2.4126397274e-08 -2.7376069241e-22 1.7819590114e-22 -2.4126397274e-08 -4.0741843116e-23 -2.4791662818e-22
          -2.859059402e-08 -3.0942067406e-22 -3.7187494227e-22 -2.859059402e-08 -3.4717830169e-22 3.7801727601e-22
          -2.859059402e-08 3.3364220348e-22 -2.695421019e-22 -2.859059402e-08 2.827769917e-22 2.9246560347e-22
          -3.3260048984e-08 1.9166834653e-22 2.7438640778e-22 -3.3260048984e-08 2.4171064162e-22 -2.7698246348e-22
          -3.3260048984e-08 -3.1078235474e-22 2.5760523995e-22 -3.3260048984e-08 -3.9828106905e-22 -2.9376363132e-22
          -3.8164592536e-08 -1.6995592143e-22 -3.9704669403e-23 -3.8164592536e-08 -2.0977084076e-22 1.1911400821e-22
          -3.8164592536e-08 -1.4069912765e-22 -2.7420001937e-23 -3.8164592536e-08 -6.6197747556e-23 1.5267634388e-22
          -4.3334241523e-08 1.2590535587e-22 9.1346200757e-23 -4.3334241523e-08 1.9579998566e-22 -1.5483139986e-23
          -4.3334241523e-08 3.9821741622e-22 -5.6833642751e-23 -4.3334241523e-08 1.5721944135e-22 1.8304020703e-22
          -4.879921263e-08 3.0176605545e-22 5.2939559203e-23 -4.879921263e-08 1.8980825613e-22 -1.3044845334e-22
          -4.879921263e-08 1.7834650535e-22 -7.2316782737e-23 -4.879921263e-08 1.8070500546e-22 1.9377223534e-23
          -5.4589932594e-08 -3.3261127259e-23 9.6886117668e-24 -5.4589932594e-08 2.180744733e-22 -3.6158391368e-23
          -5.4589932594e-08 -1.7905292927e-23 1.136672855e-22 -5.4589932594e-08 -1.2495513353e-22 9.6886117668e-24
          -6.0737045105e-08 -8.6200686463e-23 2.5960556987e-24 -6.0737045105e-08 -1.8321410978e-22 -1.0138261804e-22
          -6.0737045105e-08 -1.6193644158e-22 -2.6020129565e-22 -6.0737045105e-08 -1.3594177315e-22 4.4548975286e-22
          -6.7271414281e-08 3.7434369232e-22 5.629579277e-22 -6.7271414281e-08 5.2252353583e-22 -2.0656612542e-22
          -6.7271414281e-08 2.4683910019e-22 5.204025913e-22 -6.7271414281e-08 2.0713443079e-22 -4.8164814423e-22
          -7.4224124676e-08 -5.0219608996e-22 -2.4272451678e-22 -7.4224124676e-08 -4.3342558525e-22 -3.0414785411e-22
          -7.4224124676e-08 7.2198617218e-24 -2.2144684858e-22 -7.4224124676e-08 -4.082538335e-22 5.0343503505e-23
          -8.1626477801e-08 4.8606393605e-22 -3.3511413408e-22 -8.1626477801e-08 4.2096701503e-22 -5.1850214662e-22
          -8.1626477801e-08 5.1340322943e-23 2.2404290428e-22 -8.1626477801e-08 2.9428533959e-22 -3.9324580468e-22
          -8.9509985232e-08 2.6168571191e-23 6.896054917e-22 -8.9509985232e-08 -1.4186360702e-22 2.9826013169e-22
          -8.9509985232e-08 -1.5743994121e-22 3.7196813648e-22 -8.9509985232e-08 1.7330499816e-22 2.9826013169e-22
          -9.79063584e-08 6.8968620025e-22 5.681500391e-22 -9.79063584e-08 7.7995487302e-22 -1.8338801254e-22
          -9.79063584e-08 -4.5418154519e-22 2.5051268388e-22 -9.79063584e-08 -5.6347963597e-22 -1.8338801254e-22
          -1.0684749523e-07 -5.6512546934e-22 -3.4739880155e-22 -1.0684749523e-07 -5.7658722012e-22 4.2870858502e-22
          -1.0684749523e-07 4.4284710006e-22 -3.8995413796e-22 -1.0684749523e-07 4.4591826692e-22 5.8752726263e-22
          -1.1636546383e-07 9.513594265e-22 1.3674355385e-21 -1.1636546383e-07 5.2360106382e-22 -1.448745322e-21
          -1.1636546383e-07 3.803587204e-22 1.1594781911e-21 -1.1636546383e-07 4.9497622824e-22 -6.7263793545e-22
          -1.2649248353e-07 -8.4617591913e-22 -1.940777689e-21 -1.2649248353e-07 -8.6909942069e-22 1.7186352294e-21
          -1.2649248353e-07 9.4892478791e-23 -1.0729762962e-21 -1.2649248353e-07 3.6054049714e-22 8.508338366e-22
          -1.3726090348e-07 1.7750029012e-22 8.9097950572e-22 -1.3726090348e-07 -2.2283807064e-22 2.9761446328e-23
          -1.3726090348e-07 -8.3210228147e-23 7.5014682959e-22 -1.3726090348e-07 -1.279389008e-23 2.377187938e-22
          -1.4870317925e-07 -1.6266866119e-21 -9.7368051125e-22 -1.4870317925e-07 -1.0339672378e-21 9.6329628846e-22
          -1.4870317925e-07 1.4040349296e-21 -7.2316782737e-22 -1.4870317925e-07 9.3328023082e-22 3.4600757949e-22
          -1.6085184771e-07 5.2480589746e-22 3.3701457875e-22 -1.6085184771e-07 5.4323289866e-22 -7.7471616452e-22
          -1.6085184771e-07 -5.4842501005e-22 -3.0484346514e-22 -1.6085184771e-07 -9.1355520177e-22 -1.9998279196e-22
          -1.6710685149e-07 2.9705529804e-22 -2.4767566145e-21 -1.6710685149e-07 6.7820282368e-23 1.1286982995e-21
          -1.6710685149e-07 9.961630131e-22 -1.0096525142e-21 -1.6710685149e-07 1.3752237056e-21 3.9514624935e-22
        </DataArray>
      </PointData>
      <CellData>
        <DataArray type="Int32" Name="MaterialIDs" format="ascii" RangeMin="0" RangeMax="1">
          0 0 0 0 0 0
          0 0 0 0 0 0
          0 0 0 0 0 0
          0 0 0 0 0 0
          0 1 1 1 1 1
          1 1 1 1 1 1
          1 1 1 1 1 1
          1 1 1 1 1 1
          1 1
        </DataArray>
      </CellData>
      <Points>
        <DataArray type="Float64" Name="Points" NumberOfComponents="3" format="ascii" RangeMin="0" RangeMax="25.337718919">
          0.999999 1 1 0 1 1
          0 0 1 0.999999 0 1
          0.999999 1 0 0 1 0
          0 0 0 0.999999 0 0
          2 1 1 2 0 1
          2 1 0 2 0 0
          3 1 1 3 0 1
          3 1 0 3 0 0
          4 1 1 4 0 1
          4 1 0 4 0 0
          5 1 1 5 0 1
          5 1 0 5 0 0
          6 1 1 6 0 1
          6 1 0 6 0 0
          7 1 1 7 0 1
          7 1 0 7 0 0
          8 1 1 8 0 1
          8 1 0 8 0 0
          9 1 1 9 0 1
          9 1 0 9 0 0
          10 1 1 10 0 1
          10 1 0 10 0 0
          11 1 1 11 0 1
          11 1 0 11 0 0
          12 1 1 12 0 1
          12 1 0 12 0 0
          13 1 1 13 0 1
          13 1 0 13 0 0
          14 1 1 14 0 1
          14 1 0 14 0 0
          15 1 1 15 0 1
          15 1 0 15 0 0
          16 1 1 16 0 1
          16 1 0 16 0 0
          17 1 1 17 0 1
          17 1 0 17 0 0
          18 1 1 18 0 1
          18 1 0 18 0 0
          19 1 1 19 0 1
          19 1 0 19 0 0
          20 1 1 20 0 1
          20 1 0 20 0 0
          21 1 1 21 0 1
          21 1 0 21 0 0
          22 1 1 22 0 1
          22 1 0 22 0 0
          23 1 1 23 0 1
          23 1 0 23 0 0
          24 1 1 24 0 1
          24 1 0 24 0 0
          25 1 1 25 0 1
          25 1 0 25 0 0
          0.999999 4 1 0 4 1
          0 3 1 0.999999 3 1
          0.999999 4 0 0 4 0
          0 3 0 0.999999 3 0
          2 4 1 2 3 1
          2 4 0 2 3 0
          3 4 1 3 3 1
          3 4 0 3 3 0
          4 4 1 4 3 1
          4 4 0 4 3 0
          5 4 1 5 3 1
          5 4 0 5 3 0
          6 4 1 6 3 1
          6 4 0 6 3 0
          7 4 1 7 3 1
          7 4 0 7 3 0
          8 4 1 8 3 1
          8 4 0 8 3 0
          9 4 1 9 3 1
          9 4 0 9 3 0
          10 4 1 10 3 1
          10 4 0 10 3 0
          11 4 1 11 3 1
          11 4 0 11 3 0
          12 4 1 12 3 1
          12 4 0 12 3 0
          13 4 1 13 3 1
          13 4 0 13 3 0
          14 4 1 14 3 1
          14 4 0 14 3 0
          15 4 1 15 3 1
          15 4 0 15 3 0
          16 4 1 16 3 1
          16 4 0 16 3 0
          17 4 1 17 3 1
          17 4 0 17 3 0
          18 4 1 18 3 1
          18 4 0 18 3 0
          19 4 1 19 3 1
          19 4 0 19 3 0
          20 4 1 20 3 1
          20 4 0 20 3 0
          21 4 1 21 3 1
          21 4 0 21 3 0
          22 4 1 22 3 1
          22 4 0 22 3 0
          23 4 1 23 3 1
          23 4 0 23 3 0
          24 4 1 24 3 1
          24 4 0 24 3 0
          25 4 1 25 3 1
          25 4 0 25 3 0
        </DataArray>
      </Points>
      <Cells>
        <DataArray type="Int64" Name="connectivity" format="ascii" RangeMin="0" RangeMax="207">
          4 5 6 7 0 1
          2 3 10 4 7 11
          8 0 3 9 14 10
          11 15 12 8 9 13
          18 14 15 19 16 12
          13 17 22 18 19 23
          20 16 17 21 26 22
          23 27 24 20 21 25
          30 26 27 31 28 24
          25 29 34 30 31 35
          32 28 29 33 38 34
          35 39 36 32 33 37
          42 38 39 43 40 36
          37 41 46 42 43 47
          44 40 41 45 50 46
          47 51 48 44 45 49
          54 50 51 55 52 48
          49 53 58 54 55 59
          56 52 53 57 62 58
          59 63 60 56 57 61
          66 62 63 67 64 60
          61 65 70 66 67 71
          68 64 65 69 74 70
          71 75 72 68 69 73
          78 74 75 79 76 72
          73 77 82 78 79 83
          80 76 77 81 86 82
          83 87 84 80 81 85
          90 86 87 91 88 84
          85 89 94 90 91 95
          92 88 89 93 98 94
          95 99 96 92 93 97
          102 98 99 103 100 96
          97 101 108 109 110 111
          104 105 106 107 114 108
          111 115 112 104 107 113
          118 114 115 119 116 112
          113 117 122 118 119 123
          120 116 117 121 126 122
          123 127 124 120 121 125
          130 126 127 131 128 124
          125 129 134 130 131 135
          132 128 129 133 138 134
          135 139 136 132 133 137
          142 138 139 143 140 136
          137 141 146 142 143 147
          144 140 141 145 150 146
          147 151 148 144 145 149
          154 150 151 155 152 148
          149 153 158 154 155 159
          156 152 153 157 162 158
          159 163 160 156 157 161
          166 162 163 167 164 160
          161 165 170 166 167 171
          168 164 165 169 174 170
          171 175 172 168 169 173
          178 174 175 179 176 172
          173 177 182 178 179 183
          180 176 177 181 186 182
          183 187 184 180 181 185
          190 186 187 191 188 184
          185 189 194 190 191 195
          192 188 189 193 198 194
          195 199 196 192 193 197
          202 198 199 203 200 196
          197 201 206 202 203 207
          204 200 201 205
        </DataArray>
        <DataArray type="Int64" Name="offsets" format="ascii" RangeMin="8" RangeMax="400">
          8 16 24 32 40 48
          56 64 72 80 88 96
          104 112 120 128 136 144
          152 160 168 176 184 192
          200 208 216 224 232 240
          248 256 264 272 280 288
          296 304 312 320 328 336
          344 352 360 368 376 384
          392 400
        </DataArray>
        <DataArray type="UInt8" Name="types" format="ascii" RangeMin="12" RangeMax="12">
          12 12 12 12 12 12
          12 12 12 12 12 12
          12 12 12 12 12 12
          12 12 12 12 12 12
          12 12 12 12 12 12
          12 12 12 12 12 12
          12 12 12 12 12 12
          12 12 12 12 12 12
          12 12
        </DataArray>
      </Cells>
    </Piece>
  </UnstructuredGrid>
</VTKFile>
