<?xml version="1.0"?>
<VTKFile type="UnstructuredGrid" version="0.1" byte_order="LittleEndian" header_type="UInt32">
  <UnstructuredGrid>
    <FieldData>
      <DataArray type="Int8" Name="OGS_VERSION" NumberOfTuples="41" format="ascii" RangeMin="45" RangeMax="121">
        54 46 50 46 48 45
        49 57 48 45 103 49
        56 98 99 101 100 55
        97 50 46 100 105 114
        116 121 46 50 48 49
        57 48 53 50 49 48
        56 50 51 48 49
      </DataArray>
    </FieldData>
    <Piece NumberOfPoints="208" NumberOfCells="50">
      <PointData>
        <DataArray type="Float64" Name="pressure" format="ascii" RangeMin="49232.409145" RangeMax="496858.77437">
          49564.486719 49232.409145 49232.409145 49564.486719 49564.486719 49232.409145
          49232.409145 49564.486719 50563.236831 50563.236831 50563.236831 50563.236831
          52236.20407 52236.20407 52236.20407 52236.20407 54595.974687 54595.974687
          54595.974687 54595.974687 57660.185066 57660.185066 57660.185066 57660.185066
          61451.538632 61451.538632 61451.538632 61451.538632 65997.826298 65997.826298
          65997.826298 65997.826298 71331.95079 71331.95079 71331.95079 71331.95079
          77491.954461 77491.954461 77491.954461 77491.954461 84521.050165 84521.050165
          84521.050165 84521.050165 92467.654691 92467.654691 92467.654691 92467.654691
          101385.42425 101385.42425 101385.42425 101385.42425 111333.29144 111333.29144
          111333.29144 111333.29144 122375.50307 122375.50307 122375.50307 122375.50307
          134581.65839 134581.65839 134581.65839 134581.65839 148026.74689 148026.74689
          148026.74689 148026.74689 162791.18527 162791.18527 162791.18527 162791.18527
          178960.85296 178960.85296 178960.85296 178960.85296 196627.12554 196627.12554
          196627.12554 196627.12554 215886.90559 215886.90559 215886.90559 215886.90559
          236842.65055 236842.65055 236842.65055 236842.65055 259602.39703 259602.39703
          259602.39703 259602.39703 284279.78125 284279.78125 284279.78125 284279.78125
          310994.0553 310994.0553 310994.0553 310994.0553 339870.09894 339870.09894
          339870.09894 339870.09894 165688.26833 165226.90942 165226.90942 165688.26833
          165688.26833 165226.90942 165226.90942 165688.26833 167073.67991 167073.67991
          167073.67991 167073.67991 169387.13489 169387.13489 169387.13489 169387.13489
          172635.29011 172635.29011 172635.29011 172635.29011 176827.46413 176827.46413
          176827.46413 176827.46413 181975.63833 181975.63833 181975.63833 181975.63833
          188094.45725 188094.45725 188094.45725 188094.45725 195201.2289 195201.2289
          195201.2289 195201.2289 203315.92517 203315.92517 203315.92517 203315.92517
          212461.1823 212461.1823 212461.1823 212461.1823 222662.30132 222662.30132
          222662.30132 222662.30132 233947.24857 233947.24857 233947.24857 233947.24857
          246346.65628 246346.65628 246346.65628 246346.65628 259893.82301 259893.82301
          259893.82301 259893.82301 274624.71429 274624.71429 274624.71429 274624.71429
          290577.96314 290577.96314 290577.96314 290577.96314 307794.87057 307794.87057
          307794.87057 307794.87057 326319.40611 326319.40611 326319.40611 326319.40611
          346198.20829 346198.20829 346198.20829 346198.20829 367480.5851 367480.5851
          367480.5851 367480.5851 390218.51435 390218.51435 390218.51435 390218.51435
          414466.64403 414466.64403 414466.64403 414466.64403 440282.29265 440282.29265
          440282.29265 440282.29265 467725.4494 467725.4494 467725.4494 467725.4494
          496858.77437 496858.77437 496858.77437 496858.77437
        </DataArray>
        <DataArray type="Float64" Name="q" NumberOfComponents="3" format="ascii" RangeMin="3.8434942889e-09" RangeMax="3.3719126123e-07">
          -7.7015452517e-09 4.5617518406e-22 9.2264139672e-22 -3.8434942889e-09 2.1634793139e-22 3.9514624935e-22
          -3.8434942889e-09 1.3079625885e-22 1.6261956695e-22 -7.7015452517e-09 3.9886643015e-22 -7.0416338066e-23
          -7.7015452517e-09 -4.398691274e-22 9.2264139672e-22 -3.8434942889e-09 1.6556342816e-22 3.9514624935e-22
          -3.8434942889e-09 1.8848692973e-22 1.6261956695e-22 -7.7015452517e-09 -4.8264496367e-22 -7.0416338066e-23
          -1.546132148e-08 -1.8380404095e-23 4.3839719679e-22 -1.546132148e-08 -2.7593904694e-23 2.1815518185e-22
          -1.546132148e-08 -2.8978883922e-22 4.8424419993e-22 -1.546132148e-08 -3.2417409157e-22 2.0587051439e-22
          -2.3337603334e-08 8.0707366654e-22 9.7038884452e-22 -2.3337603334e-08 5.2974339755e-22 4.9393281169e-22
          -2.3337603334e-08 4.2648530615e-23 8.4513250258e-22 -2.3337603334e-08 -6.8074893675e-23 3.6867646975e-22
          -3.1388778913e-08 -7.9211223483e-22 -5.5016403762e-22 -3.1388778913e-08 -6.6767880957e-22 8.7679439358e-22
          -3.1388778913e-08 7.027937844e-22 -5.1660170195e-22 -3.1388778913e-08 5.5603927439e-22 9.1035672925e-22
          -3.9673402456e-08 -1.6725585863e-22 -2.2283807064e-22 -3.9673402456e-08 -1.6643294195e-22 9.2333700775e-22
          -3.9673402456e-08 1.2431419046e-21 -4.9462842272e-22 -3.9673402456e-08 9.7277688602e-22 7.5223366267e-22
          -4.825023861e-08 -6.9916679781e-22 -1.188593969e-22 -4.825023861e-08 -6.7624329625e-22 1.2595195297e-22
          -4.825023861e-08 -2.8100385268e-22 5.2243948175e-23 -4.825023861e-08 -4.1130002906e-23 2.3892362744e-22
          -5.7178311101e-08 -1.1474481349e-22 -3.7576902582e-22 -5.7178311101e-08 -3.5911516364e-22 3.356233567e-23
          -5.7178311101e-08 2.8784179744e-22 -5.5915703836e-22 -5.7178311101e-08 3.1076529901e-22 2.8407501955e-22
          -6.651694539e-08 -2.1240725074e-22 4.2161602896e-22 -6.651694539e-08 -3.1781125798e-22 1.7110334508e-22
          -6.651694539e-08 -2.9488775641e-22 2.9635968702e-22 -6.651694539e-08 -6.8990670011e-22 4.5847003135e-23
          -7.6325806567e-08 -1.5737751293e-23 4.8753586665e-22 -7.6325806567e-08 2.6817585116e-23 -4.1350502766e-23
          -7.6325806567e-08 -8.745461434e-22 6.6763221247e-22 -7.6325806567e-08 -7.1572746579e-22 3.8058836039e-23
          -8.6664931888e-08 1.9739922192e-22 2.4012846109e-22 -8.6664931888e-08 2.0047038879e-22 -6.4565893324e-22
          -8.6664931888e-08 -4.9743249262e-22 -1.0384222795e-23 -8.6664931888e-08 -6.5707408692e-22 -8.9617161712e-22
          -9.7594757449e-08 -1.289243519e-21 -1.1324991889e-21 -9.7594757449e-08 -1.2364312655e-21 9.8786562339e-22
          -9.7594757449e-08 1.3352178278e-21 -1.1996238602e-21 -9.7594757449e-08 1.3734971637e-21 1.2383783073e-21
          -1.0917613856e-07 -3.0016057636e-23 1.2525634194e-22 -1.0917613856e-07 3.5189530192e-22 -3.356233567e-23
          -1.0917613856e-07 1.0917078513e-22 -2.8407501955e-22 -1.0917613856e-07 4.4073864118e-22 3.0864435448e-22
          -1.2147036354e-07 3.3631896773e-22 6.1589748691e-22 -1.2147036354e-07 5.6740448545e-23 -1.247371308e-21
          -1.2147036354e-07 -1.6599943362e-21 7.0759149318e-22 -1.2147036354e-07 -1.6644908366e-21 -9.5430328772e-22
          -1.3453916063e-07 -1.2114675279e-21 -1.0384222795e-23 -1.3453916063e-07 -7.6078566369e-22 8.5741717005e-22
          -1.3453916063e-07 1.4860403241e-21 -2.1175823681e-22 -1.3453916063e-07 1.3865581508e-21 7.4115382885e-22
          -1.4844469799e-07 -5.1868853504e-22 1.7819590114e-21 -1.4844469799e-07 -4.8962269974e-22 -2.4012846109e-22
          -1.4844469799e-07 -7.2247221634e-22 7.3076960605e-22 -1.4844469799e-07 -1.1485847457e-21 9.9444895684e-22
          -1.6324957683e-07 6.2118948355e-23 -1.2927090885e-21 -1.6324957683e-07 -8.2973897109e-24 1.3041117566e-21
          -1.6324957683e-07 2.910657311e-21 -1.536638439e-21 -1.6324957683e-07 2.8770949753e-21 1.346667093e-21
          -1.7901681758e-07 5.5871603864e-22 1.5470226617e-21 -1.7901681758e-07 6.3812537745e-22 -6.1589748691e-22
          -1.7901681758e-07 -1.1948727485e-21 1.7549800092e-21 -1.7901681758e-07 -1.4118230967e-21 -1.214554526e-22
          -1.9580983953e-07 1.8509159046e-21 3.7716024788e-22 -1.9580983953e-07 1.5422715501e-21 -1.1390825223e-21
          -1.9580983953e-07 -5.3553792577e-22 -4.415024751e-22 -1.9580983953e-07 -8.6545994845e-22 -1.0899438525e-21
          -2.1369243418e-07 -1.5457246339e-21 -8.110609443e-22 -2.1369243418e-07 -1.1257544383e-21 -7.1278360458e-22
          -2.1369243418e-07 -8.9651942263e-22 -4.4428491922e-22 -2.1369243418e-07 -8.8138408816e-22 -3.4600757949e-22
          -2.327287327e-07 -1.115718021e-21 1.3584425378e-21 -2.327287327e-07 -1.3785153724e-21 2.7824441119e-24
          -2.327287327e-07 1.0259244594e-21 2.3113546035e-21 -2.327287327e-07 1.0963407975e-21 5.5294648174e-22
          -2.5298316805e-07 7.4704155127e-22 -2.1175823681e-21 -2.5298316805e-07 1.4347465983e-21 9.6051384434e-22
          -2.5298316805e-07 1.2939139222e-21 -1.7508063431e-21 -2.5298316805e-07 8.9686722814e-22 1.3272898694e-21
          -2.7452043227e-07 1.6711606732e-22 5.1901136924e-22 -2.7452043227e-07 3.382194124e-22 -2.0712261424e-21
          -2.7452043227e-07 -2.2987471018e-21 2.0352541394e-21 -2.7452043227e-07 -1.7207220625e-21 -2.3528914947e-21
          -2.974054298e-07 5.8252153965e-22 6.5326071192e-22 -2.974054298e-07 1.1204009098e-21 -3.9792869347e-22
          -2.974054298e-07 1.248066919e-21 -6.712467134e-23 -2.974054298e-07 1.5264406046e-21 -1.3508407591e-21
          -3.2170322737e-07 -6.5191943249e-22 1.2345774179e-21 -3.2170322737e-07 1.3554737053e-21 -1.7022134563e-22
          -3.2170322737e-07 -6.6484976836e-22 -8.3182938989e-22 -3.2170322737e-07 3.4290230118e-22 3.9002869332e-21
          -3.3421346804e-07 -1.765364232e-21 -8.3887467975e-21 -3.3421346804e-07 -3.8120210395e-21 3.858750042e-21
          -3.3421346804e-07 6.8749136946e-21 -5.0877625717e-21 -3.3421346804e-07 7.3153977245e-21 2.293368602e-21
          -1.0687323896e-08 1.1228105771e-21 9.7368051125e-22 -5.3398075634e-09 -4.6936347676e-22 4.2351647363e-22
          -5.3398075634e-09 -4.6936347676e-22 -3.1003557654e-22 -1.0687323896e-08 6.9669804777e-22 1.0587911841e-22
          -1.0687323896e-08 -3.937550273e-22 9.7368051125e-22 -5.3398075634e-09 -1.9187179067e-22 4.2351647363e-22
          -5.3398075634e-09 -1.9187179067e-22 -3.1003557654e-22 -1.0687323896e-08 -2.8527985319e-22 1.0587911841e-22
          -2.1405469732e-08 -1.5882799703e-21 -1.0020507355e-21 -2.1405469732e-08 -1.4736624625e-21 2.6849868536e-22
          -2.1405469732e-08 -2.7802588002e-22 -1.3424934268e-22 -2.1405469732e-08 -1.2377861672e-23 3.5972002955e-23
          -3.2185244199e-08 1.1935747207e-21 2.5258952844e-21 -3.2185244199e-08 4.862378388e-22 -7.7508894134e-23
          -3.2185244199e-08 -1.2784307822e-21 1.1570685238e-21 -3.2185244199e-08 -1.0889004359e-21 -3.4600757949e-22
          -4.3057460897e-08 8.6780139284e-22 8.5741717005e-22 -4.3057460897e-08 1.1674527466e-21 -8.2904694578e-22
          -4.3057460897e-08 -4.4739019753e-22 3.0725313243e-22 -4.3057460897e-08 -6.340698768e-22 -5.1140959056e-22
          -5.4052941113e-08 -1.0885526304e-21 -7.7990827591e-22 -5.4052941113e-08 -1.1020421315e-21 1.1750545253e-21
          -5.4052941113e-08 4.9513764534e-22 -1.2317949738e-21 -5.4052941113e-08 6.2489048765e-22 1.1259158554e-21
          -6.52025065e-08 1.7500425091e-21 1.6940658945e-21 -6.52025065e-08 1.2580101421e-21 -1.8490836828e-21
          -6.52025065e-08 -1.5368930503e-21 1.0587911841e-21 -6.52025065e-08 -5.8968231861e-22 -1.2138089723e-21
          -7.6536982429e-08 -1.2376826962e-21 -1.2705494209e-21 -7.6536982429e-08 -1.1001416868e-21 1.1363000782e-21
          -7.6536982429e-08 3.7178174807e-22 9.8277339724e-23 -7.6536982429e-08 2.3424073866e-22 1.4047987636e-21
          -8.80871986e-08 4.1192741719e-22 8.8578739432e-22 -8.80871986e-08 8.6260928145e-22 -6.6642737883e-22
          -8.80871986e-08 -1.1487211915e-22 1.0691754069e-21 -8.80871986e-08 -6.9081032534e-22 -8.8578739432e-22
          -9.9883989581e-08 -2.7387718517e-22 4.6227092069e-22 -9.9883989581e-08 -3.5328652397e-22 1.4463356547e-22
          -9.9883989581e-08 -2.3043984932e-22 5.4738159351e-22 -9.9883989581e-08 -2.5171751752e-22 9.273242855e-22
          -1.1195819528e-07 -2.1914767613e-21 -3.2310771103e-21 -1.1195819528e-07 -1.8705477394e-21 2.4407846116e-21
          -1.1195819528e-07 2.4013345535e-21 -1.9964996924e-21 -1.1195819528e-07 2.9817692601e-21 1.474705879e-21
          -1.2434066132e-07 -1.2094988604e-21 -1.5805849974e-21 -1.2434066132e-07 -9.589861765e-22 7.9029249871e-22
          -1.2434066132e-07 8.5032461398e-22 -2.4483863903e-21 -1.2434066132e-07 1.8098200131e-21 1.0228191811e-21
          -1.3706223935e-07 1.8516797385e-21 1.9098979122e-22 -1.3706223935e-07 2.1971780954e-21 -9.8128228993e-22
          -1.3706223935e-07 3.0933996551e-22 1.6580938916e-21 -1.3706223935e-07 1.6280595536e-22 -1.7148343401e-21
          -1.5015378722e-07 -3.2023341092e-22 6.0968693028e-22 -1.5015378722e-07 -1.3927004845e-21 9.5494895612e-23
          -1.5015378722e-07 -7.0602726479e-23 -2.1771052608e-21 -1.5015378722e-07 4.9184597861e-22 2.748037744e-21
          -1.6364616908e-07 1.3610385935e-21 3.0447068831e-22 -1.6364616908e-07 1.5567112735e-21 -2.2726001564e-21
          -1.6364616908e-07 -6.5037838256e-23 4.0274802804e-22 -1.6364616908e-07 -1.2048336427e-24 -2.004101471e-21
          -1.7757025541e-07 -2.1912903729e-21 -9.2936117596e-22 -1.7757025541e-07 -1.6321333346e-21 2.0995963667e-21
          -1.7757025541e-07 -9.966856178e-23 -1.2421113254e-23 -1.7757025541e-07 -4.0831291626e-22 1.6836816717e-21
          -1.9195692289e-07 4.2685906262e-21 3.768074481e-21 -1.9195692289e-07 4.027070943e-21 -6.6815142361e-21
          -1.9195692289e-07 -2.917749867e-21 2.8370224272e-23 -1.9195692289e-07 -2.4928421713e-21 -5.2144101357e-21
          -2.068370542e-07 8.6019961416e-22 7.7508894134e-22 -2.068370542e-07 6.6781860088e-22 -1.4255672092e-21
          -2.068370542e-07 -2.1973279232e-22 1.5086409915e-21 -2.068370542e-07 -9.4476450382e-23 1.1348089709e-22
          -2.2224153776e-07 3.6158391368e-22 -1.9757312468e-21 -2.2224153776e-07 -6.6503615677e-22 -7.0518182589e-22
          -2.2224153776e-07 -1.3314635356e-21 -2.4012846109e-22 -2.2224153776e-07 -3.0484346514e-22 -1.3404565363e-21
          -2.3820126733e-07 1.3345688139e-21 -8.6780139284e-22 -2.3820126733e-07 1.4541238218e-21 -3.5972002955e-23
          -2.3820126733e-07 1.2785239764e-22 1.9681294681e-21 -2.3820126733e-07 -1.1695895223e-22 -1.1363000782e-21
          -2.5474714151e-07 6.4806860052e-22 1.3272898694e-21 -2.5474714151e-07 5.2281225858e-22 -3.9514624935e-21
          -2.5474714151e-07 5.1381925784e-22 5.9373781926e-22 -2.5474714151e-07 5.4738159351e-22 -2.4843583932e-21
          -2.7191006327e-07 1.401370651e-22 -6.0894137663e-22 -2.7191006327e-07 1.3288674799e-21 3.8116482626e-21
          -2.7191006327e-07 4.2211660125e-21 -1.3424934268e-21 -2.7191006327e-07 2.3144598818e-21 5.278752363e-21
          -2.8972093927e-07 2.9933583165e-21 3.9514624935e-21 -2.8972093927e-07 4.3244490753e-21 -4.0649433906e-21
          -2.8972093927e-07 -2.1888807056e-21 4.148017173e-21 -2.8972093927e-07 -1.7795493442e-21 -3.5279460199e-21
          -3.0821067921e-07 1.7729660107e-21 -6.5604315603e-22 -3.0821067921e-07 6.1932559942e-23 -6.4981262235e-21
          -3.0821067921e-07 -5.5535614902e-22 -3.2954193375e-21 -3.0821067921e-07 -1.4525462114e-21 -6.1313501985e-21
          -3.2741019514e-07 -3.8289885957e-21 -5.025457235e-21 -3.2741019514e-07 -2.8203545267e-21 2.9909486492e-21
          -3.2741019514e-07 3.5898785799e-21 -3.7549078141e-21 -3.2741019514e-07 2.9791732044e-21 2.9909486492e-21
          -3.3719126123e-07 -1.854648571e-21 -2.9342082007e-21 -3.3719126123e-07 7.8472761049e-22 3.931093589e-22
          -3.3719126123e-07 2.1439157019e-21 -9.3010672961e-22 -3.3719126123e-07 4.148017173e-21 -1.4388801182e-22
        </DataArray>
      </PointData>
      <CellData>
        <DataArray type="Int32" Name="MaterialIDs" format="ascii" RangeMin="0" RangeMax="1">
          0 0 0 0 0 0
          0 0 0 0 0 0
          0 0 0 0 0 0
          0 0 0 0 0 0
          0 1 1 1 1 1
          1 1 1 1 1 1
          1 1 1 1 1 1
          1 1 1 1 1 1
          1 1
        </DataArray>
      </CellData>
      <Points>
        <DataArray type="Float64" Name="Points" NumberOfComponents="3" format="ascii" RangeMin="0" RangeMax="25.337718919">
          0.999999 1 1 0 1 1
          0 0 1 0.999999 0 1
          0.999999 1 0 0 1 0
          0 0 0 0.999999 0 0
          2 1 1 2 0 1
          2 1 0 2 0 0
          3 1 1 3 0 1
          3 1 0 3 0 0
          4 1 1 4 0 1
          4 1 0 4 0 0
          5 1 1 5 0 1
          5 1 0 5 0 0
          6 1 1 6 0 1
          6 1 0 6 0 0
          7 1 1 7 0 1
          7 1 0 7 0 0
          8 1 1 8 0 1
          8 1 0 8 0 0
          9 1 1 9 0 1
          9 1 0 9 0 0
          10 1 1 10 0 1
          10 1 0 10 0 0
          11 1 1 11 0 1
          11 1 0 11 0 0
          12 1 1 12 0 1
          12 1 0 12 0 0
          13 1 1 13 0 1
          13 1 0 13 0 0
          14 1 1 14 0 1
          14 1 0 14 0 0
          15 1 1 15 0 1
          15 1 0 15 0 0
          16 1 1 16 0 1
          16 1 0 16 0 0
          17 1 1 17 0 1
          17 1 0 17 0 0
          18 1 1 18 0 1
          18 1 0 18 0 0
          19 1 1 19 0 1
          19 1 0 19 0 0
          20 1 1 20 0 1
          20 1 0 20 0 0
          21 1 1 21 0 1
          21 1 0 21 0 0
          22 1 1 22 0 1
          22 1 0 22 0 0
          23 1 1 23 0 1
          23 1 0 23 0 0
          24 1 1 24 0 1
          24 1 0 24 0 0
          25 1 1 25 0 1
          25 1 0 25 0 0
          0.999999 4 1 0 4 1
          0 3 1 0.999999 3 1
          0.999999 4 0 0 4 0
          0 3 0 0.999999 3 0
          2 4 1 2 3 1
          2 4 0 2 3 0
          3 4 1 3 3 1
          3 4 0 3 3 0
          4 4 1 4 3 1
          4 4 0 4 3 0
          5 4 1 5 3 1
          5 4 0 5 3 0
          6 4 1 6 3 1
          6 4 0 6 3 0
          7 4 1 7 3 1
          7 4 0 7 3 0
          8 4 1 8 3 1
          8 4 0 8 3 0
          9 4 1 9 3 1
          9 4 0 9 3 0
          10 4 1 10 3 1
          10 4 0 10 3 0
          11 4 1 11 3 1
          11 4 0 11 3 0
          12 4 1 12 3 1
          12 4 0 12 3 0
          13 4 1 13 3 1
          13 4 0 13 3 0
          14 4 1 14 3 1
          14 4 0 14 3 0
          15 4 1 15 3 1
          15 4 0 15 3 0
          16 4 1 16 3 1
          16 4 0 16 3 0
          17 4 1 17 3 1
          17 4 0 17 3 0
          18 4 1 18 3 1
          18 4 0 18 3 0
          19 4 1 19 3 1
          19 4 0 19 3 0
          20 4 1 20 3 1
          20 4 0 20 3 0
          21 4 1 21 3 1
          21 4 0 21 3 0
          22 4 1 22 3 1
          22 4 0 22 3 0
          23 4 1 23 3 1
          23 4 0 23 3 0
          24 4 1 24 3 1
          24 4 0 24 3 0
          25 4 1 25 3 1
          25 4 0 25 3 0
        </DataArray>
      </Points>
      <Cells>
        <DataArray type="Int64" Name="connectivity" format="ascii" RangeMin="0" RangeMax="207">
          4 5 6 7 0 1
          2 3 10 4 7 11
          8 0 3 9 14 10
          11 15 12 8 9 13
          18 14 15 19 16 12
          13 17 22 18 19 23
          20 16 17 21 26 22
          23 27 24 20 21 25
          30 26 27 31 28 24
          25 29 34 30 31 35
          32 28 29 33 38 34
          35 39 36 32 33 37
          42 38 39 43 40 36
          37 41 46 42 43 47
          44 40 41 45 50 46
          47 51 48 44 45 49
          54 50 51 55 52 48
          49 53 58 54 55 59
          56 52 53 57 62 58
          59 63 60 56 57 61
          66 62 63 67 64 60
          61 65 70 66 67 71
          68 64 65 69 74 70
          71 75 72 68 69 73
          78 74 75 79 76 72
          73 77 82 78 79 83
          80 76 77 81 86 82
          83 87 84 80 81 85
          90 86 87 91 88 84
          85 89 94 90 91 95
          92 88 89 93 98 94
          95 99 96 92 93 97
          102 98 99 103 100 96
          97 101 108 109 110 111
          104 105 106 107 114 108
          111 115 112 104 107 113
          118 114 115 119 116 112
          113 117 122 118 119 123
          120 116 117 121 126 122
          123 127 124 120 121 125
          130 126 127 131 128 124
          125 129 134 130 131 135
          132 128 129 133 138 134
          135 139 136 132 133 137
          142 138 139 143 140 136
          137 141 146 142 143 147
          144 140 141 145 150 146
          147 151 148 144 145 149
          154 150 151 155 152 148
          149 153 158 154 155 159
          156 152 153 157 162 158
          159 163 160 156 157 161
          166 162 163 167 164 160
          161 165 170 166 167 171
          168 164 165 169 174 170
          171 175 172 168 169 173
          178 174 175 179 176 172
          173 177 182 178 179 183
          180 176 177 181 186 182
          183 187 184 180 181 185
          190 186 187 191 188 184
          185 189 194 190 191 195
          192 188 189 193 198 194
          195 199 196 192 193 197
          202 198 199 203 200 196
          197 201 206 202 203 207
          204 200 201 205
        </DataArray>
        <DataArray type="Int64" Name="offsets" format="ascii" RangeMin="8" RangeMax="400">
          8 16 24 32 40 48
          56 64 72 80 88 96
          104 112 120 128 136 144
          152 160 168 176 184 192
          200 208 216 224 232 240
          248 256 264 272 280 288
          296 304 312 320 328 336
          344 352 360 368 376 384
          392 400
        </DataArray>
        <DataArray type="UInt8" Name="types" format="ascii" RangeMin="12" RangeMax="12">
          12 12 12 12 12 12
          12 12 12 12 12 12
          12 12 12 12 12 12
          12 12 12 12 12 12
          12 12 12 12 12 12
          12 12 12 12 12 12
          12 12 12 12 12 12
          12 12 12 12 12 12
          12 12
        </DataArray>
      </Cells>
    </Piece>
  </UnstructuredGrid>
</VTKFile>
