<?xml version="1.0"?>
<VTKFile type="UnstructuredGrid" version="0.1" byte_order="LittleEndian" header_type="UInt32">
  <UnstructuredGrid>
    <FieldData>
      <DataArray type="Int8" Name="OGS_VERSION" NumberOfTuples="40" format="ascii" RangeMin="45" RangeMax="121">
        54 46 50 46 48 45
        49 53 45 103 53 51
        56 49 101 101 99 99
        100 46 100 105 114 116
        121 46 50 48 49 57
        48 52 48 49 49 53
        48 52 49 50
      </DataArray>
    </FieldData>
    <Piece NumberOfPoints="208" NumberOfCells="50">
      <PointData>
        <DataArray type="Float64" Name="temperature" format="ascii" RangeMin="0.0045046356556" RangeMax="0.16995883704">
          0.0045840173495 0.0045046356556 0.0045046356556 0.0045840173495 0.0045840173495 0.0045046356556
          0.0045046356556 0.0045840173495 0.0048239349694 0.0048239349694 0.0048239349694 0.0048239349694
          0.0052297176539 0.0052297176539 0.0052297176539 0.0052297176539 0.0058102944189 0.0058102944189
          0.0058102944189 0.0058102944189 0.0065782618886 0.0065782618886 0.0065782618886 0.0065782618886
          0.0075499789556 0.0075499789556 0.0075499789556 0.0075499789556 0.0087456858451 0.0087456858451
          0.0087456858451 0.0087456858451 0.010189645955 0.010189645955 0.010189645955 0.010189645955
          0.01191030833 0.01191030833 0.01191030833 0.01191030833 0.013940488317 0.013940488317
          0.013940488317 0.013940488317 0.016317563629 0.016317563629 0.016317563629 0.016317563629
          0.019083682837 0.019083682837 0.019083682837 0.019083682837 0.02228598304 0.02228598304
          0.02228598304 0.02228598304 0.025976813354 0.025976813354 0.025976813354 0.025976813354
          0.030213960707 0.030213960707 0.030213960707 0.030213960707 0.035060874379 0.035060874379
          0.035060874379 0.035060874379 0.040586885732 0.040586885732 0.040586885732 0.040586885732
          0.046867419599 0.046867419599 0.046867419599 0.046867419599 0.053984193952 0.053984193952
          0.053984193952 0.053984193952 0.062025404627 0.062025404627 0.062025404627 0.062025404627
          0.071085891944 0.071085891944 0.071085891944 0.071085891944 0.08126728679 0.08126728679
          0.08126728679 0.08126728679 0.09267813352 0.09267813352 0.09267813352 0.09267813352
          0.1054339878 0.1054339878 0.1054339878 0.1054339878 0.1196574875 0.1196574875
          0.1196574875 0.1196574875 0.024803466295 0.02463741736 0.02463741736 0.024803466295
          0.024803466295 0.02463741736 0.02463741736 0.024803466295 0.025302871635 0.025302871635
          0.025302871635 0.025302871635 0.026139405198 0.026139405198 0.026139405198 0.026139405198
          0.027319359321 0.027319359321 0.027319359321 0.027319359321 0.028851551112 0.028851551112
          0.028851551112 0.028851551112 0.030747330917 0.030747330917 0.030747330917 0.030747330917
          0.03302059257 0.03302059257 0.03302059257 0.03302059257 0.035687785575 0.035687785575
          0.035687785575 0.035687785575 0.038767929049 0.038767929049 0.038767929049 0.038767929049
          0.042282627184 0.042282627184 0.042282627184 0.042282627184 0.046256086006 0.046256086006
          0.046256086006 0.046256086006 0.050715131152 0.050715131152 0.050715131152 0.050715131152
          0.05568922639 0.05568922639 0.05568922639 0.05568922639 0.061210492584 0.061210492584
          0.061210492584 0.061210492584 0.067313726822 0.067313726822 0.067313726822 0.067313726822
          0.07403642138 0.07403642138 0.07403642138 0.07403642138 0.081418782247 0.081418782247
          0.081418782247 0.081418782247 0.089503746898 0.089503746898 0.089503746898 0.089503746898
          0.098337001059 0.098337001059 0.098337001059 0.098337001059 0.10796699417 0.10796699417
          0.10796699417 0.10796699417 0.11844495332 0.11844495332 0.11844495332 0.11844495332
          0.12982489544 0.12982489544 0.12982489544 0.12982489544 0.14216363757 0.14216363757
          0.14216363757 0.14216363757 0.15552080497 0.15552080497 0.15552080497 0.15552080497
          0.16995883704 0.16995883704 0.16995883704 0.16995883704
        </DataArray>
      </PointData>
      <CellData>
        <DataArray type="Int32" Name="MaterialIDs" format="ascii" RangeMin="0" RangeMax="1">
          0 0 0 0 0 0
          0 0 0 0 0 0
          0 0 0 0 0 0
          0 0 0 0 0 0
          0 1 1 1 1 1
          1 1 1 1 1 1
          1 1 1 1 1 1
          1 1 1 1 1 1
          1 1
        </DataArray>
      </CellData>
      <Points>
        <DataArray type="Float64" Name="Points" NumberOfComponents="3" format="ascii" RangeMin="0" RangeMax="25.337718919">
          0.999999 1 1 0 1 1
          0 0 1 0.999999 0 1
          0.999999 1 0 0 1 0
          0 0 0 0.999999 0 0
          2 1 1 2 0 1
          2 1 0 2 0 0
          3 1 1 3 0 1
          3 1 0 3 0 0
          4 1 1 4 0 1
          4 1 0 4 0 0
          5 1 1 5 0 1
          5 1 0 5 0 0
          6 1 1 6 0 1
          6 1 0 6 0 0
          7 1 1 7 0 1
          7 1 0 7 0 0
          8 1 1 8 0 1
          8 1 0 8 0 0
          9 1 1 9 0 1
          9 1 0 9 0 0
          10 1 1 10 0 1
          10 1 0 10 0 0
          11 1 1 11 0 1
          11 1 0 11 0 0
          12 1 1 12 0 1
          12 1 0 12 0 0
          13 1 1 13 0 1
          13 1 0 13 0 0
          14 1 1 14 0 1
          14 1 0 14 0 0
          15 1 1 15 0 1
          15 1 0 15 0 0
          16 1 1 16 0 1
          16 1 0 16 0 0
          17 1 1 17 0 1
          17 1 0 17 0 0
          18 1 1 18 0 1
          18 1 0 18 0 0
          19 1 1 19 0 1
          19 1 0 19 0 0
          20 1 1 20 0 1
          20 1 0 20 0 0
          21 1 1 21 0 1
          21 1 0 21 0 0
          22 1 1 22 0 1
          22 1 0 22 0 0
          23 1 1 23 0 1
          23 1 0 23 0 0
          24 1 1 24 0 1
          24 1 0 24 0 0
          25 1 1 25 0 1
          25 1 0 25 0 0
          0.999999 4 1 0 4 1
          0 3 1 0.999999 3 1
          0.999999 4 0 0 4 0
          0 3 0 0.999999 3 0
          2 4 1 2 3 1
          2 4 0 2 3 0
          3 4 1 3 3 1
          3 4 0 3 3 0
          4 4 1 4 3 1
          4 4 0 4 3 0
          5 4 1 5 3 1
          5 4 0 5 3 0
          6 4 1 6 3 1
          6 4 0 6 3 0
          7 4 1 7 3 1
          7 4 0 7 3 0
          8 4 1 8 3 1
          8 4 0 8 3 0
          9 4 1 9 3 1
          9 4 0 9 3 0
          10 4 1 10 3 1
          10 4 0 10 3 0
          11 4 1 11 3 1
          11 4 0 11 3 0
          12 4 1 12 3 1
          12 4 0 12 3 0
          13 4 1 13 3 1
          13 4 0 13 3 0
          14 4 1 14 3 1
          14 4 0 14 3 0
          15 4 1 15 3 1
          15 4 0 15 3 0
          16 4 1 16 3 1
          16 4 0 16 3 0
          17 4 1 17 3 1
          17 4 0 17 3 0
          18 4 1 18 3 1
          18 4 0 18 3 0
          19 4 1 19 3 1
          19 4 0 19 3 0
          20 4 1 20 3 1
          20 4 0 20 3 0
          21 4 1 21 3 1
          21 4 0 21 3 0
          22 4 1 22 3 1
          22 4 0 22 3 0
          23 4 1 23 3 1
          23 4 0 23 3 0
          24 4 1 24 3 1
          24 4 0 24 3 0
          25 4 1 25 3 1
          25 4 0 25 3 0
        </DataArray>
      </Points>
      <Cells>
        <DataArray type="Int64" Name="connectivity" format="ascii" RangeMin="0" RangeMax="207">
          4 5 6 7 0 1
          2 3 10 4 7 11
          8 0 3 9 14 10
          11 15 12 8 9 13
          18 14 15 19 16 12
          13 17 22 18 19 23
          20 16 17 21 26 22
          23 27 24 20 21 25
          30 26 27 31 28 24
          25 29 34 30 31 35
          32 28 29 33 38 34
          35 39 36 32 33 37
          42 38 39 43 40 36
          37 41 46 42 43 47
          44 40 41 45 50 46
          47 51 48 44 45 49
          54 50 51 55 52 48
          49 53 58 54 55 59
          56 52 53 57 62 58
          59 63 60 56 57 61
          66 62 63 67 64 60
          61 65 70 66 67 71
          68 64 65 69 74 70
          71 75 72 68 69 73
          78 74 75 79 76 72
          73 77 82 78 79 83
          80 76 77 81 86 82
          83 87 84 80 81 85
          90 86 87 91 88 84
          85 89 94 90 91 95
          92 88 89 93 98 94
          95 99 96 92 93 97
          102 98 99 103 100 96
          97 101 108 109 110 111
          104 105 106 107 114 108
          111 115 112 104 107 113
          118 114 115 119 116 112
          113 117 122 118 119 123
          120 116 117 121 126 122
          123 127 124 120 121 125
          130 126 127 131 128 124
          125 129 134 130 131 135
          132 128 129 133 138 134
          135 139 136 132 133 137
          142 138 139 143 140 136
          137 141 146 142 143 147
          144 140 141 145 150 146
          147 151 148 144 145 149
          154 150 151 155 152 148
          149 153 158 154 155 159
          156 152 153 157 162 158
          159 163 160 156 157 161
          166 162 163 167 164 160
          161 165 170 166 167 171
          168 164 165 169 174 170
          171 175 172 168 169 173
          178 174 175 179 176 172
          173 177 182 178 179 183
          180 176 177 181 186 182
          183 187 184 180 181 185
          190 186 187 191 188 184
          185 189 194 190 191 195
          192 188 189 193 198 194
          195 199 196 192 193 197
          202 198 199 203 200 196
          197 201 206 202 203 207
          204 200 201 205
        </DataArray>
        <DataArray type="Int64" Name="offsets" format="ascii" RangeMin="8" RangeMax="400">
          8 16 24 32 40 48
          56 64 72 80 88 96
          104 112 120 128 136 144
          152 160 168 176 184 192
          200 208 216 224 232 240
          248 256 264 272 280 288
          296 304 312 320 328 336
          344 352 360 368 376 384
          392 400
        </DataArray>
        <DataArray type="UInt8" Name="types" format="ascii" RangeMin="12" RangeMax="12">
          12 12 12 12 12 12
          12 12 12 12 12 12
          12 12 12 12 12 12
          12 12 12 12 12 12
          12 12 12 12 12 12
          12 12 12 12 12 12
          12 12 12 12 12 12
          12 12 12 12 12 12
          12 12
        </DataArray>
      </Cells>
    </Piece>
  </UnstructuredGrid>
</VTKFile>
