<?xml version="1.0"?>
<VTKFile type="UnstructuredGrid" version="0.1" byte_order="LittleEndian" header_type="UInt32">
  <UnstructuredGrid>
    <FieldData>
      <DataArray type="Int8" Name="IntegrationPointMetaData" NumberOfTuples="97" format="ascii" RangeMin="34" RangeMax="125">
        123 34 105 110 116 101
        103 114 97 116 105 111
        110 95 112 111 105 110
        116 95 97 114 114 97
        121 115 34 58 91 123
        34 105 110 116 101 103
        114 97 116 105 111 110
        95 111 114 100 101 114
        34 58 50 44 34 110
        97 109 101 34 58 34
        115 105 103 109 97 95
        105 112 34 44 34 110
        117 109 98 101 114 95
        111 102 95 99 111 109
        112 111 110 101 110 116
        115 34 58 54 125 93
        125
      </DataArray>
      <DataArray type="Int8" Name="OGS_VERSION" NumberOfTuples="40" format="ascii" RangeMin="45" RangeMax="121">
        54 46 50 46 48 45
        49 53 45 103 53 51
        56 49 101 101 99 99
        100 46 100 105 114 116
        121 46 50 48 49 57
        48 52 48 49 49 53
        48 52 49 50
      </DataArray>
      <DataArray type="Float64" Name="sigma_ip" NumberOfComponents="6" NumberOfTuples="7776" format="ascii" RangeMin="6385.0867886" RangeMax="988515.8888">
        -270708.95474 -270708.92424 -812126.7422 2.8834205168e-07 -5.4233052329e-06 13.552292138
        -283491.43534 -283491.45405 -850474.38085 1.118630166e-07 -2.953892163e-06 -26.633592921
        -296273.91552 -296273.98372 -888822.01936 -8.6870145723e-08 -6.5770186875e-07 -13.731036516
        -270708.95473 -270708.92424 -812126.74222 3.1302529876e-08 -1.8325506651e-07 13.552294436
        -283491.43534 -283491.45405 -850474.38086 2.5187146792e-09 -5.5480066089e-09 -26.633589899
        -296273.91553 -296273.98373 -888822.01937 1.2129892376e-08 -1.0608773298e-09 -13.731034944
        -270708.95474 -270708.92424 -812126.74221 -2.5653914754e-07 5.1583804305e-06 13.552292355
        -283491.43533 -283491.45405 -850474.38085 -1.2625612532e-07 3.0443558757e-06 -26.63358966
        -296273.91553 -296273.98372 -888822.01935 1.0307100994e-07 7.5715181881e-07 -13.731034558
        -271645.89704 -271645.91421 -814937.75982 1.3159438603e-06 -4.8240309772e-06 1.4335656618
        -284025.72617 -284025.70563 -852077.09637 5.0024245591e-07 -2.4735352933e-06 0.10085043038
        -296405.55486 -296405.4969 -889216.43276 -4.7360815239e-07 -5.2650421004e-07 -0.14077720882
        -271645.89703 -271645.91422 -814937.75984 2.2555030672e-07 -1.3980521458e-07 1.4335688539
        -284025.72617 -284025.70564 -852077.09638 9.7600971765e-08 1.3945543202e-07 0.10085531055
        -296405.55487 -296405.49691 -889216.43277 -1.236209902e-07 1.5275435664e-08 -0.14077295704
        -271645.89703 -271645.91422 -814937.75983 -8.9652277058e-07 4.6401076403e-06 1.433564958
        -284025.72616 -284025.70563 -852077.09637 -3.2496545468e-07 2.8481092919e-06 0.10085475374
        -296405.55486 -296405.49691 -889216.43276 2.1819581108e-07 6.5268467515e-07 -0.14077249112
        -272618.34037 -272618.41216 -817855.30826 2.4085571455e-06 -4.2669723022e-06 -15.913128767
        -284567.448 -284567.39212 -853702.12049 8.7687724247e-07 -2.017378106e-06 26.238982692
        -296516.55515 -296516.37193 -889548.93256 -9.4876119641e-07 -4.0137548838e-07 13.860524437
        -272618.34036 -272618.41216 -817855.30828 4.8513316138e-07 -1.3638165787e-07 -15.913124234
        -284567.44799 -284567.39212 -853702.1205 1.8093072533e-07 2.602094759e-07 26.238989939
        -296516.55516 -296516.37193 -889548.93256 -3.4783155207e-07 2.3162313676e-08 13.860531929
        -272618.34037 -272618.41216 -817855.30828 -1.4709088686e-06 4.0835101512e-06 -15.913129685
        -284567.44799 -284567.39212 -853702.12049 -5.3546959914e-07 2.6270826501e-06 26.238988911
        -296516.55516 -296516.37193 -889548.93255 2.4480852343e-07 5.3699529109e-07 13.860532855
        -237686.70725 -237686.71723 -713060.16168 -3.6345140693e-07 -7.4693137003e-06 9.6215376154
        -250469.28853 -250469.29283 -751407.88277 -1.2148638697e-07 -6.8444720764e-06 -12.21175922
        -263251.90916 -263251.88153 -789755.61698 2.1804766139e-07 -6.3133542104e-06 19.091814585
        -237686.70727 -237686.71724 -713060.16169 -7.6587192598e-08 1.5966435904e-07 9.621540224
        -250469.28854 -250469.29283 -751407.88278 -2.6103438166e-08 6.8962267186e-09 -12.211757908
        -263251.90915 -263251.88153 -789755.61698 2.2734678771e-08 -2.3966094834e-07 19.091815533
        -237686.70725 -237686.71723 -713060.16168 2.978363408e-07 7.8088908757e-06 9.6215403648
        -250469.28854 -250469.29283 -751407.88278 9.7814819379e-08 6.8785040029e-06 -12.211759797
        -263251.90916 -263251.88153 -789755.61698 -2.0306700543e-07 5.8542262672e-06 19.091812545
        -239704.08746 -239704.0701 -719112.19294 -1.5484435777e-06 -6.8684070262e-06 2.3721430427
        -252083.81101 -252083.83432 -756251.52626 -5.5015602495e-07 -6.3211841889e-06 -0.14744323823
        -264463.57654 -264463.61253 -793390.87357 9.781320059e-07 -5.7578210426e-06 -1.5320758881
        -239704.08748 -239704.07011 -719112.19295 -1.8387980756e-07 1.5641030313e-07 2.3721459458
        -252083.81103 -252083.83432 -756251.52627 -2.7442896057e-07 -7.8059009535e-08 -0.14744421455
        -264463.57653 -264463.61252 -793390.87357 5.8665398171e-08 -2.9674019155e-07 -1.532079748
        -239704.08745 -239704.0701 -719112.19294 1.277929938e-06 7.2325043184e-06 2.3721508952
        -252083.81102 -252083.83432 -756251.52626 3.7532164376e-08 6.2159763028e-06 -0.14744390259
        -264463.57654 -264463.61252 -793390.87356 -8.8557906391e-07 5.2154568287e-06 -1.5320830776
        -241747.84586 -241747.79371 -725243.32899 -2.7616418709e-06 -6.2314098593e-06 -13.182868065
        -253696.63193 -253696.66856 -761090.04232 -9.5664896518e-07 -5.7988677865e-06 12.33301944
        -265645.46278 -265645.55834 -796936.77057 1.8106309918e-06 -5.2410700161e-06 -16.642948005
        -241747.84588 -241747.79372 -725243.329 -3.2305461939e-07 1.7787641096e-07 -13.182865054
        -253696.63195 -253696.66857 -761090.04233 -5.0253538218e-07 -1.7202593827e-07 12.333015818
        -265645.46278 -265645.55834 -796936.77057 1.6627377183e-07 -3.9649051139e-07 -16.642957192
        -241747.84586 -241747.79371 -725243.32898 2.2231404907e-06 6.6711104958e-06 -13.182855169
        -253696.63194 -253696.66856 -761090.04231 -3.9523307897e-09 5.5387733076e-06 12.333018288
        -265645.46278 -265645.55834 -796936.77057 -1.4967523699e-06 4.5319745179e-06 -16.642961071
        -204666.92934 -204666.93218 -614000.79939 -9.2721137099e-07 -2.738108666e-06 9.087306036
        -217449.37974 -217449.36359 -652348.0746 -6.6077430055e-07 -4.8576388522e-06 -15.638125678
        -230231.78366 -230231.77949 -690695.33431 -4.5737359019e-07 -7.016609418e-06 12.878892974
        -204666.92938 -204666.93219 -614000.79939 2.6515112495e-08 -1.2379547511e-07 9.0873078357
        -217449.37977 -217449.36359 -652348.07459 4.6827385924e-08 4.3854587488e-08 -15.638125006
        -230231.78367 -230231.77949 -690695.3343 -4.0772099983e-08 1.7185943219e-07 12.878896392
        -204666.92934 -204666.93218 -614000.7994 9.2045912474e-07 2.420745678e-06 9.0873061121
        -217449.37974 -217449.36358 -652348.0746 7.5334682534e-07 4.8753388081e-06 -15.638129295
        -230231.78365 -230231.77949 -690695.3343 4.3344736734e-07 7.2904747884e-06 12.878893403
        -207759.01251 -207759.02107 -623277.07178 -4.1592856171e-06 -2.692669276e-06 3.8018092911
        -220138.79816 -220138.7662 -660416.26662 -2.9397663197e-06 -4.8039232715e-06 -0.02769585338
        -232518.53422 -232518.49479 -697555.44494 -1.9558342305e-06 -6.5217868832e-06 -2.6011552096
        -207759.01255 -207759.02108 -623277.07177 2.0844533517e-08 -2.9199656504e-08 3.8018088312
        -220138.79819 -220138.7662 -660416.26662 1.9591715384e-07 -6.4589985178e-08 -0.027697369347
        -232518.53423 -232518.49479 -697555.44494 8.7769997843e-08 2.9292612417e-07 -2.6011536503
        -207759.01251 -207759.02107 -623277.07177 4.1264544293e-06 2.5336715402e-06 3.8018089621
        -220138.79816 -220138.76619 -660416.26662 3.317757454e-06 4.5740825883e-06 -0.027699784169
        -232518.53421 -232518.49479 -697555.44495 2.1782081343e-06 7.0071461227e-06 -2.6011544801
        -210879.54408 -210879.56256 -632638.70615 -7.3821889285e-06 -2.6460331984e-06 -15.172120885
        -222828.59785 -222828.55325 -668485.61516 -5.23108337e-06 -4.7248436635e-06 15.425692559
        -234777.59871 -234777.52631 -704332.50654 -3.4881717908e-06 -5.9784356117e-06 -8.3303930376
        -210879.54412 -210879.56257 -632638.70614 2.8781169225e-08 7.5773444036e-08 -15.172123712
        -222828.59789 -222828.55326 -668485.61516 3.3714338285e-07 -1.3747892097e-07 15.425688748
        -234777.59874 -234777.52632 -704332.50655 1.8672970073e-07 4.748322219e-07 -8.3303934294
        -210879.54408 -210879.56255 -632638.70613 7.3494659802e-06 2.6643560548e-06 -15.172121545
        -222828.59785 -222828.55325 -668485.61516 5.8778765779e-06 4.3168342853e-06 15.425688381
        -234777.59872 -234777.52632 -704332.50656 3.8969293635e-06 6.79489519e-06 -8.3303919141
        -171646.78435 -171646.81779 -514940.48681 -2.0759152106e-07 3.0559783595e-06 7.9331164065
        -184429.16699 -184429.1889 -553287.58862 -5.6489527221e-07 8.9483003798e-07 -14.860997337
        -197211.54489 -197211.55843 -591634.68884 -9.1586904163e-07 -1.4246571823e-06 15.526954662
        -171646.78436 -171646.81779 -514940.4868 1.3536776552e-08 3.0423895466e-08 7.9331159342
        -184429.16701 -184429.18891 -553287.58861 -1.9324088035e-08 6.0842999391e-08 -14.860996608
        -197211.54493 -197211.55844 -591634.68884 5.3139846774e-09 -6.7127106628e-08 15.526958772
        -171646.78435 -171646.81779 -514940.48681 2.3598191286e-07 -2.9909116159e-06 7.9331158261
        -184429.167 -184429.1889 -553287.58862 5.0964084893e-07 -7.6886040071e-07 -14.86099813
[...]
      <PointData>
        <DataArray type="Float64" Name="MaterialForces" NumberOfComponents="3" format="ascii" RangeMin="0.9289824474" RangeMax="1443.5217363">
          -2.5587992241e-06 4.912692475e-11 154.33342704 447.45898481 -6.5778493763e-12 80.615137105
          223.7294924 23.793806909 40.307568553 -1.2798302436e-06 46.439066132 77.166713518
          3.7426498693e-05 2.3607782396e-12 -199.15661813 241.10636221 -1.0956568985e-11 -97.616182836
          120.55318111 12.704760522 -48.808091418 1.8713224406e-05 24.875846776 -99.578309073
          6.9921049715e-06 -4.3582915055e-12 136.78901545 343.28512942 2.7435831385e-12 70.95069161
          171.64256471 18.574966761 35.475345805 3.4960222308e-06 36.529165118 68.394507724
          1.9664254154e-06 -3.9283243325e-11 119.24624529 253.00743168 5.491607169e-12 61.287082379
          126.50371584 14.005735263 30.64354119 9.8371127422e-07 27.820321043 59.623122645
          7.320563526e-06 2.6088464722e-11 101.70412769 176.61951028 7.7404749277e-13 51.623930848
          88.309755141 10.086465038 25.811965424 3.6602067084e-06 20.3131355 50.852063847
          1.0552828321e-05 1.5543122345e-12 84.161276732 114.1202423 5.6976645624e-13 41.960335678
          57.06012115 6.8170180267 20.980167839 5.276421966e-06 14.007360672 42.080638366
          9.1911768614e-06 -2.8133051444e-12 65.277156844 58.982763466 -1.1519674104e-12 28.968954764
          29.491381733 4.2035489618 14.484477382 4.5955936692e-06 9.3278772501 32.638578422
          -1.2791982584e-06 -46.439066131 77.166713519 223.7294924 -23.793806909 40.307568552
          1.8713316621e-05 -24.875846776 -99.578309065 120.55318111 -12.704760522 -48.808091417
          3.4960170581e-06 -36.529165118 68.394507726 171.64256471 -18.574966761 35.475345805
          9.8303142693e-07 -27.820321043 59.623122644 126.50371584 -14.005735263 30.64354119
          3.6603309681e-06 -20.313135499 50.852063846 88.30975514 -10.086465038 25.811965424
          5.2764049627e-06 -14.007360672 42.080638366 57.06012115 -6.8170180267 20.980167839
          4.5955863683e-06 -9.3278772501 32.638578422 29.491381733 -4.2035489618 14.484477382
          -1.3575227371e-05 -3.156692685e-10 141.74636259 -6.7848992842e-06 43.043585877 70.873181295
          3.0376648198e-05 1.3919532194e-10 -206.29795124 1.5186396581e-05 22.914738429 -103.14897558
          1.2460964967e-05 -1.4559908834e-11 127.24040427 6.2311561209e-06 34.714020237 63.620202145
          8.2530387289e-06 3.1248692522e-10 112.73596705 4.1231202346e-06 27.288758822 56.367983518
          1.201638181e-05 -1.3863576953e-10 98.231808015 6.0089858707e-06 20.768332913 49.115904006
          1.3016052549e-05 7.6689765649e-12 83.727384281 6.5080149483e-06 15.152529848 41.863692141
          1.0998462137e-05 -4.4626524698e-12 79.514855618 5.4992381671e-06 12.245390057 39.757427809
          -6.7892487721e-06 -43.043585877 70.873181297 1.5189220278e-05 -22.914738428 -103.14897563
          6.2305728932e-06 -34.71402024 63.620202132 4.1279795511e-06 -27.288758817 56.367983524
          6.0076990138e-06 -20.768332915 49.115904008 6.5080382541e-06 -15.152529848 41.86369214
          5.4992252103e-06 -12.245390057 39.757427809 -5.9803359562e-05 4.2500580832e-10 128.87040275
          -2.9908679352e-05 39.493767667 64.435211391 9.298664736e-07 -2.5309887519e-10 -213.5040341
          4.6695495826e-07 20.895177978 -106.752017 -2.6331834874e-05 5.0692783304e-11 117.11358097
          -1.3165702512e-05 32.631974424 58.556790241 -1.9271936409e-05 -5.2796256256e-10 105.35797324
          -9.6299326202e-06 26.431302565 52.678976856 1.8292238124e-06 2.790478959e-10 93.602204247
          9.1370240085e-07 20.892256821 46.801102121 -5.4142940442e-06 7.7053918801e-12 81.846474901
          -2.707429374e-06 16.014653487 40.923237451 -4.0265888622e-05 -8.3630879999e-12 95.360222577
          -2.0132881829e-05 15.808223729 47.680111288 -2.9897193912e-05 -39.493745396 64.435195772
          4.6323148695e-07 -20.895177972 -106.75201707 -1.3166468904e-05 -32.63197435 58.556790702
          -9.6395322231e-06 -26.431324923 52.678992002 9.1579138939e-07 -20.892256813 46.801102124
          -2.7070452262e-06 -16.014653488 40.92323745 -2.0132980822e-05 -15.808223729 47.680111288
          8.7763887095e-05 9.1839424954e-11 115.70421246 4.3890038356e-05 35.785334729 57.852126012
          0.00016009028309 -1.2187939546e-10 -220.77323692 8.0044688261e-05 18.816447995 -110.38661841
          4.1473019294e-05 -9.0907725792e-11 106.40755637 2.0736680568e-05 30.270819692 53.203778569
          5.0374123944e-05 -2.5668356329e-13 97.111504888 2.5179679014e-05 25.222448558 48.555732273
          8.6049286764e-05 8.8595797365e-12 87.815132767 4.3025282338e-05 20.640696944 43.907566382
          0.00018875805821 2.6914914741e-11 78.518887843 9.437925241e-05 16.525500325 39.259443922
          8.6458424818e-05 -2.4717117242e-11 112.81218672 4.322938338e-05 20.092287455 56.406093358
          4.3876309505e-05 -35.78531614 57.852090507 8.0046692659e-05 -18.816447994 -110.38661847
          2.073644724e-05 -30.270811819 53.203778575 2.519234998e-05 -25.222475018 48.555767783
          4.302318176e-05 -20.640696945 43.907566384 9.4378887134e-05 -16.525500326 39.259443921
          4.3229115555e-05 -20.092287455 56.406093358 -0.00072519461278 2.515676556e-10 102.24909635
          -0.00036260954681 31.915027139 51.124558314 -0.00067045441507 3.7416025833e-10 -228.11132542
          -0.00033522498305 16.677880767 -114.05566286 -0.00023341893443 -3.0239988291e-10 95.121971741
          -0.00011670669996 27.619060388 47.560985709 -0.00022445631507 -2.0117241206e-10 87.995746265
          -0.00011221785221 23.63720934 43.997863161 -0.00030297147815 3.0849101051e-10 80.869250973
          -0.00015149029511 19.969882004 40.434625487 -0.00034429351246 1.2398482241e-10 73.743239975
          -0.00017214649205 16.61701784 36.871619988 -0.0007314092684 -1.4165024709e-10 131.87000595
          -0.00036570442165 25.174920423 65.935002976 -0.00036258909209 -31.915004103 51.124542491
          -0.00033522884158 -16.677880773 -114.05566268 -0.00011671130395 -27.619060423 47.560986043
          -0.00011223495828 -23.637232336 43.997878641 -0.00015148205662 -19.969882007 40.434625486
          -0.00017214681851 -16.617017836 36.871619987 -0.00036570485968 -25.174920423 65.935002976
          0.00042174124084 -3.1368738718e-09 148.07566734 0.00021087394038 48.56193411 74.037854114
          -0.00056910033629 2.3133850391e-10 -344.98294414 -0.00028455023565 25.562422067 -172.49147196
          0.00068211469316 -4.1339731638e-10 138.16597955 0.00034105712648 41.963195018 69.08298948
          0.00051779164601 3.079557942e-09 128.2565682 0.00025888504895 35.847135386 64.128263976
          0.00044553356425 -3.2022029473e-10 118.34633538 0.00022277207232 30.214808826 59.173167688
          -0.00023997515988 -3.4895020207e-10 108.43608102 -0.0001199861975 25.066522806 54.21804051
          -0.00042268207415 -2.6462743108e-10 106.09633662 -0.00021134075752 20.995513739 53.048168311
          0.000210865969 -48.561887187 74.037822211 -0.00028454968287 -25.56242209 -172.4914721
          0.00034105130236 -41.963195364 69.082990095 0.00025891043317 -35.84718192 64.128295228
          0.00022276205349 -30.214808839 59.173167687 -0.00011998907704 -25.066522809 54.218040511
          -0.00021134132984 -20.995513741 53.048168313 -2.5168283219e-05 -2.5635049639e-12 55.736707127
          22.077064843 -9.2947871622e-13 21.581513345 11.038532421 2.4353433703 10.790756673
          -1.2584140148e-05 6.1897308715 27.868353563 -1.5673700371e-05 -2.264410881e-12 52.587755623
          14.264270779 -9.375833443e-13 20.947324313 7.1321353894 1.8849428557 10.473662156
          -7.8368503997e-06 4.6948711295 26.293877811 -1.0140686697e-05 -1.387112647e-12 45.388232054
          8.1883329748 -8.1529227813e-13 18.448638081 4.0941664874 1.2550622174 9.2243190404
          -5.0703460071e-06 3.0839031352 22.694116027 -8.3054890014e-06 -4.9327208984e-13 34.136790094
          3.8478934478 -7.6796902171e-13 14.084682622 1.9239467239 0.66466002761 7.042341311
          -4.1527474188e-06 1.621484673 17.068395047 -1.1996305838e-05 1.1368336827e-13 18.834831354
          1.2436232017 -6.2058518047e-13 7.8562198276 0.62181160083 0.23283318205 3.9281099138
          -5.9981559347e-06 0.57270829791 9.4174156769 -9.3213770943e-06 1.8611501229e-13 4.4904514054
          0.1878232086 -2.6120772212e-13 1.8705063809 0.093911604302 0.036524413275 0.93525319043
          -4.6606899516e-06 0.094592712157 2.2452257027 -1.2584143411e-05 -6.1897308715 27.868353563
          11.038532421 -2.4353433703 10.790756673 -7.8368494227e-06 -4.6948711295 26.293877811
          7.1321353894 -1.8849428557 10.473662156 -5.0703410741e-06 -3.0839031352 22.694116027
          4.0941664874 -1.2550622174 9.2243190404 -4.1527419226e-06 -1.621484673 17.068395047
          1.9239467239 -0.66466002761 7.042341311 -5.9981502935e-06 -0.57270829791 9.4174156769
          0.62181160083 -0.23283318205 3.9281099138 -4.6606872908e-06 -0.094592712156 2.2452257027
          0.093911604303 -0.036524413276 0.93525319043 -3.885886823e-06 -5.3690385471e-12 80.981188284
          -1.9429376081e-06 10.230070409 40.490594142 -3.4062378482e-06 -2.0181634142e-12 73.925764638
          -1.7031249619e-06 7.516584433 36.962882319 4.9050088746e-06 9.3636209897e-13 62.241479226
          2.4524982942e-06 4.8216837056 31.120739613 1.0506940731e-05 2.3678836669e-12 45.92674674
          5.2534664707e-06 2.4906261574 22.96337337 7.3612824258e-06 3.0748528723e-12 24.981861256
          3.68063882e-06 0.86859914616 12.490930628 -5.0287365074e-06 1.6437823325e-12 5.9003375362
          -2.5143689876e-06 0.14186917593 2.9501687681 -1.9429472076e-06 -10.230070409 40.490594142
          -1.7031142878e-06 -7.516584433 36.962882319 2.4525093369e-06 -4.8216837056 31.120739613
          5.2534740722e-06 -2.4906261574 22.96337337 3.6806437143e-06 -0.86859914616 12.490930628
          -2.5143675e-06 -0.14186917593 2.9501687681 -4.013200709e-05 -1.2323475573e-11 110.56639294
          -2.0066005284e-05 15.670971336 55.283196468 -2.2622666851e-06 1.803002192e-12 98.735925597
          -1.1311503432e-06 11.271329266 49.367962798 5.8540154164e-06 6.719069745e-12 81.697963525
          2.9269998443e-06 7.1108632253 40.848981762 -1.3217163777e-06 5.6108451219e-12 59.452245094
          -6.6085802652e-07 3.6258393797 29.726122547 -1.475014589e-05 3.524444625e-12 31.997443063
          -7.3750695142e-06 1.2525667434 15.998721532 1.136882754e-05 1.2637946245e-12 7.5032207446
          5.6844156281e-06 0.20281417481 3.7516103723 -2.0066002996e-05 -15.670971336 55.283196468
          -1.1311200527e-06 -11.271329266 49.367962798 2.927014795e-06 -7.1108632253 40.848981762
          -6.6085835826e-07 -3.6258393797 29.726122547 -7.3750755653e-06 -1.2525667434 15.998721532
          5.6844121502e-06 -0.20281417481 3.7516103723 4.2282467234e-06 -1.941824479e-11 144.49128625
          2.1140963398e-06 22.716591345 72.245643123 8.0080217767e-05 1.9737100843e-11 127.01964499
          4.0040062892e-05 16.091351746 63.509822496 8.5963544942e-05 1.0846656906e-11 103.75990438
          4.2981778941e-05 10.027288951 51.87995219 0.00010042087386 3.1308289294e-12 74.713385864
          5.0210446463e-05 5.0628092985 37.356692932 0.00022223404345 -5.766429001e-13 39.881085987
          0.00011111702704 1.736084902 19.940542993 8.8806386494e-05 -6.2519434074e-13 9.2995479185
          4.4403194779e-05 0.27917084079 4.6497739592 2.1141466959e-06 -22.716591345 72.245643123
          4.0040141236e-05 -16.091351746 63.509822496 4.298176821e-05 -10.02728895 51.87995219
          5.0210428112e-05 -5.0628092985 37.356692932 0.00011111701709 -1.736084902 19.940542993
          4.4403192017e-05 -0.27917084079 4.6497739592 -0.00036230596147 -2.5262458792e-11 182.75570171
          -0.00018115304197 31.571954918 91.377850857 -0.0002143530084 5.4312110365e-11 158.77321968
          -0.00010717651027 22.108792624 79.386609842 -0.00024549015919 1.5112355811e-12 128.42389899
          -0.00012274504729 13.646701586 64.211949496 -0.00024266852326 -4.5727865938e-12 91.710136595
          -0.0001213342555 6.8373559642 45.855068297 -0.00058040182519 -3.0049435162e-12 48.630634797
          -0.00029020091268 2.3306916812 24.315317399 -0.00066689201676 -1.0768608227e-12 11.286542242
          -0.00033344600893 0.37264601591 5.6432711211 -0.00018115286758 -31.571954918 91.377850857
          -0.00010717650873 -22.108792624 79.386609842 -0.00012274510317 -13.646701586 64.211949496
          -0.00012133426753 -6.8373559642 45.855068297 -0.00029020091273 -2.3306916812 24.315317399
          -0.00033344600803 -0.37264601591 5.6432711211 0.00039845980936 -2.6791013852e-11 175.46886642
          0.00019922996496 32.149174041 87.734433211 0.00054236117929 9.1104013222e-11 163.83576185
          0.00027118077995 25.189312391 81.917880926 0.00042766603099 -3.2855496102e-11 142.43179205
          0.00021383296392 17.733688269 71.215896024 4.8981682568e-05 -6.8784977714e-12 111.25819701
          2.4490813846e-05 10.737163049 55.629098507 0.0019056678087 -9.5878860407e-13 70.308586706
          0.00095283390757 5.152560051 35.154293353 0.00012456204671 -7.6239015101e-13 37.874056709
          6.2281022839e-05 2.2794251692 18.937028354 0.00019923018745 -32.149174043 87.734433211
          0.00027118039593 -25.18931239 81.917880926 0.0002138330268 -17.733688269 71.215896024
          2.4490860973e-05 -10.737163049 55.629098507 0.00095283390421 -5.152560051 35.154293353
          6.2281023328e-05 -2.2794251692 18.937028354 -0.00031279362126 2.6915003559e-09 231.18844973
          -0.00015639690698 71.3540623 115.59426448 -0.00071202548006 -4.1944758777e-10 -441.56811939
          -0.00035601651784 37.581265462 -220.7840596 -0.00024037327466 -1.4627943301e-10 212.37473513
          -0.00012018224451 60.159339026 106.1873683 -0.00022088876496 -1.9701786869e-09 193.5611342
          -0.00011044691655 49.951113303 96.780526684 -0.00020438239953 4.4469139482e-10 174.74756863
          -0.00010218889261 40.731865771 87.373784323 -0.0007384084386 1.6907364397e-11 155.93424603
          -0.00036920330102 32.502018296 77.967123019 -0.00015638847822 -71.354025059 115.5941934
          -0.00035601214536 -37.581265465 -220.7840597 -0.00012018727932 -60.159323321 106.18736835
          -0.00011045188426 -49.95116626 96.780597802 -0.00010218966595 -40.731865752 87.373784314
          -0.00036920378741 -32.502018297 77.967123017 0.0004628368045 1.4785115354e-09 283.27166879
          0.00023143222224 85.879607966 141.63585423 -2.3503103279e-05 6.3074878653e-11 -412.62121639
          -1.1751971698e-05 45.777865889 -206.31060839 1.6079257144e-05 -4.1170622467e-11 254.03867892
          8.0308783197e-06 69.075746835 127.01933898 1.2002768656e-05 -1.7579964151e-09 224.80710302
          6.0007789067e-06 54.148303535 112.4035322 0.0001345128295 7.101252919e-10 195.57705035
          6.7253314224e-05 41.10041639 97.788525177 -0.00026602941984 2.1028512265e-10 166.34636445
          -0.00013301436747 29.932021621 83.173182226 0.00023140514044 -85.879564275 141.6358233
          -1.1750862697e-05 -45.777865853 -206.31060817 8.0433591023e-06 -69.075746435 127.0193399
          6.0084112619e-06 -54.148347682 112.40356215 6.7255142181e-05 -41.100416376 97.788525177
          -0.00013301545209 -29.932021618 83.173182226 0.00021790386232 -2.1890862456e-09 333.03675025
          0.00010894099883 99.167588399 166.51837512 -0.00022698438271 -3.0184921229e-10 -384.18220694
          -0.00011348853725 53.506855145 -192.09110332 -5.8066330055e-06 2.760724982e-10 291.07213433
          -2.902712275e-06 75.85478716 145.53606719 1.721507531e-05 1.6970069794e-09 249.10972719
          8.6160284027e-06 55.737113894 124.55486357 5.5069348411e-05 -6.1938809637e-10 207.14843806
          2.7533077334e-05 38.817578464 103.57421902 -0.00045867802025 -1.6361312305e-10 165.18623346
          -0.00022933943334 25.096731286 82.593116731 0.00010896004193 -99.167588352 166.51837513
          -0.00011349368991 -53.506855152 -192.09110349 -2.9045795316e-06 -75.854787237 145.53606716
          8.6019542422e-06 -55.737113851 124.5548636 2.7536384584e-05 -38.817578468 103.57421903
          -0.00022933862578 -25.096731288 82.59311673 -4.6922499024e-06 7.2456174394e-10 380.49771429
          -2.3432300651e-06 111.28408412 190.24885715 -0.00045279311257 7.8443918028e-11 -356.26659397
          -0.00022639776768 60.778589108 -178.13329701 -0.00016718518584 -8.1918472006e-11 323.48416705
          -8.3592318745e-05 80.689737742 161.74208352 -0.00015537250844 -5.1376503052e-10 266.47599867
          -7.768909488e-05 55.124159648 133.23799934 -0.00011523601936 2.0125234812e-10 209.4658684
          -5.7617386039e-05 34.590015527 104.7329342 -0.00074378195046 4.8627546434e-11 152.45566476
          -0.00037189086341 19.087307882 76.227832379 -2.3481525631e-06 -111.28408412 190.24885714
          -0.0002263959644 -60.778589107 -178.13329699 -8.3592352311e-05 -80.689737729 161.74208353
          -7.7684704671e-05 -55.124159656 133.23799933 -5.7618545789e-05 -34.590015527 104.7329342
          -0.00037189104658 -19.087307881 76.22783238 0.0018646759587 -1.2030909602e-10 425.63561618
          0.00093233752837 122.28542495 212.81780809 0.0018537353214 4.0209613417e-11 -328.85767834
          0.00092686810882 67.600172389 -164.42883916 0.00075150913421 4.2756909124e-12 351.2593448
          0.00037575440449 83.76755541 175.6296724 0.00083656035018 1.1816325696e-10 276.8905106
          0.00041828085728 52.711442561 138.4452553 0.00091529345674 -4.9522164147e-11 202.51955158
          0.00045764660253 29.120260122 101.25977579 0.0007988667399 -9.5937147115e-12 128.14638852
          0.00039943335494 12.993760138 64.07319426 0.00093233827295 -122.28542495 212.81780809
          0.00092686741664 -67.600172389 -164.42883917 0.00037575456729 -83.767555412 175.6296724
          0.00041827985402 -52.71144256 138.4452553 0.00045764682792 -29.120260122 101.25977579
          0.00039943337723 -12.993760138 64.07319426 -0.0018147951469 2.1522339466e-11 576.53202163
          -0.00090739749831 162.3972402 288.26601082 0.00151903455 -8.7752027866e-12 -383.5291822
          0.00075951720382 90.122589372 -191.7645911 -0.0013077223865 3.3431035718e-12 463.82377674
          -0.0006538611686 106.65345304 231.91188837 -0.0010857841093 -2.094147078e-11 351.12038232
          -0.00054289217755 62.853094494 175.56019116 -0.0010316231342 6.7061911579e-12 238.41628698
          -0.00051581156419 30.997740412 119.20814349 -0.0020728242001 4.418687638e-14 125.71092224
          -0.0010364121047 11.087169546 62.855461121 -0.0009073976194 -162.3972402 288.26601082
          0.00075951731108 -90.122589372 -191.7645911 -0.00065386119104 -106.65345304 231.91188837
          -0.00054289200422 -62.853094495 175.56019116 -0.00051581157366 -30.997740412 119.20814349
          -0.001036412099 -11.087169546 62.855461121 0.0013857046933 -9.2370555649e-13 703.12596514
          0.00069285234497 198.69829735 351.56298257 0.001675654907 7.2475359048e-13 -453.12696231
          0.00083782745958 111.06709423 -226.56348115 0.00065616421443 9.7699626167e-13 562.50019588
          0.00032808211135 128.38535233 281.25009794 0.00068651935113 3.185007813e-12 421.87550176
          0.00034325968767 73.697847716 210.93775088 0.00064190121235 -1.0906830994e-12 281.2507992
          0.00032095060658 34.635350936 140.6253996 0.00077232982712 -1.1808887201e-12 140.6249031
          0.00038616491327 11.197877925 70.312451548 0.0010525048919 -6.1262106499e-13 31.249075056
          0.00052625244494 1.6926666816 15.624537528 0.00069285234746 -198.69829735 351.56298257
          0.00083782745034 -111.06709423 -226.56348115 0.00032808210639 -128.38535233 281.25009794