<?xml version="1.0"?>
<VTKFile type="UnstructuredGrid" version="0.1" byte_order="LittleEndian" header_type="UInt32">
  <UnstructuredGrid>
    <FieldData>
      <DataArray type="Int8" Name="OGS_VERSION" NumberOfTuples="41" format="ascii" RangeMin="45" RangeMax="121">
        54 46 50 46 48 45
        51 54 56 45 103 57
        55 48 52 100 98 50
        56 97 46 100 105 114
        116 121 46 50 48 49
        57 48 54 49 50 48
        57 51 56 50 51
      </DataArray>
    </FieldData>
    <Piece NumberOfPoints="804" NumberOfCells="200">
      <PointData>
        <DataArray type="Float64" Name="pressure" format="ascii" RangeMin="231033.43272" RangeMax="1000000">
          982681.17722 1000000 1000000 982681.17722 982681.17722 1000000
          1000000 982681.17722 965610.48943 965610.48943 965610.48943 965610.48943
          948786.07207 948786.07207 948786.07207 948786.07207 932206.06152 932206.06152
          932206.06152 932206.06152 915868.59553 915868.59553 915868.59553 915868.59553
          899771.8137 899771.8137 899771.8137 899771.8137 883913.85793 883913.85793
          883913.85793 883913.85793 868292.87291 868292.87291 868292.87291 868292.87291
          852907.00652 852907.00652 852907.00652 852907.00652 837754.41034 837754.41034
          837754.41034 837754.41034 822833.24009 822833.24009 822833.24009 822833.24009
          808141.65609 808141.65609 808141.65609 808141.65609 793677.8237 793677.8237
          793677.8237 793677.8237 779439.91381 779439.91381 779439.91381 779439.91381
          765426.10323 765426.10323 765426.10323 765426.10323 751634.57521 751634.57521
          751634.57521 751634.57521 738063.51985 738063.51985 738063.51985 738063.51985
          724711.13455 724711.13455 724711.13455 724711.13455 711575.62447 711575.62447
          711575.62447 711575.62447 698655.20296 698655.20296 698655.20296 698655.20296
          685948.09201 685948.09201 685948.09201 685948.09201 673452.52269 673452.52269
          673452.52269 673452.52269 661166.73557 661166.73557 661166.73557 661166.73557
          649088.9812 649088.9812 649088.9812 649088.9812 637217.52047 637217.52047
          637217.52047 637217.52047 625550.62512 625550.62512 625550.62512 625550.62512
          614086.5781 614086.5781 614086.5781 614086.5781 602823.67404 602823.67404
          602823.67404 602823.67404 591760.21964 591760.21964 591760.21964 591760.21964
          580894.53411 580894.53411 580894.53411 580894.53411 570224.94958 570224.94958
          570224.94958 570224.94958 559749.8115 559749.8115 559749.8115 559749.8115
          549467.47906 549467.47906 549467.47906 549467.47906 539376.32559 539376.32559
          539376.32559 539376.32559 529474.73897 529474.73897 529474.73897 529474.73897
          519761.12203 519761.12203 519761.12203 519761.12203 510233.8929 510233.8929
          510233.8929 510233.8929 500891.48547 500891.48547 500891.48547 500891.48547
          491732.34973 491732.34973 491732.34973 491732.34973 482754.95215 482754.95215
          482754.95215 482754.95215 473957.7761 473957.7761 473957.7761 473957.7761
          465339.32218 465339.32218 465339.32218 465339.32218 456898.10859 456898.10859
          456898.10859 456898.10859 448632.67154 448632.67154 448632.67154 448632.67154
          440541.56556 440541.56556 440541.56556 440541.56556 432623.36388 432623.36388
          432623.36388 432623.36388 424876.65879 424876.65879 424876.65879 424876.65879
          417300.06195 417300.06195 417300.06195 417300.06195 409892.20478 409892.20478
          409892.20478 409892.20478 402651.73876 402651.73876 402651.73876 402651.73876
          395577.33578 395577.33578 395577.33578 395577.33578 388667.68846 388667.68846
          388667.68846 388667.68846 381921.51048 381921.51048 381921.51048 381921.51048
          375337.53688 375337.53688 375337.53688 375337.53688 368914.52437 368914.52437
          368914.52437 368914.52437 362651.25167 362651.25167 362651.25167 362651.25167
          356546.51978 356546.51978 356546.51978 356546.51978 350599.15227 350599.15227
          350599.15227 350599.15227 344807.99558 344807.99558 344807.99558 344807.99558
          339171.91932 339171.91932 339171.91932 339171.91932 333689.81651 333689.81651
          333689.81651 333689.81651 328360.60388 328360.60388 328360.60388 328360.60388
          323183.22214 323183.22214 323183.22214 323183.22214 318156.63622 318156.63622
          318156.63622 318156.63622 313279.83552 313279.83552 313279.83552 313279.83552
          308551.83418 308551.83418 308551.83418 308551.83418 303971.67133 303971.67133
          303971.67133 303971.67133 299538.41127 299538.41127 299538.41127 299538.41127
          295251.14377 295251.14377 295251.14377 295251.14377 291108.98425 291108.98425
          291108.98425 291108.98425 287111.074 287111.074 287111.074 287111.074
          283256.58041 283256.58041 283256.58041 283256.58041 279544.69714 279544.69714
          279544.69714 279544.69714 275974.64437 275974.64437 275974.64437 275974.64437
          272545.66894 272545.66894 272545.66894 272545.66894 269257.04456 269257.04456
          269257.04456 269257.04456 266108.07199 266108.07199 266108.07199 266108.07199
          263098.07918 263098.07918 263098.07918 263098.07918 260226.42148 260226.42148
          260226.42148 260226.42148 257492.48178 257492.48178 257492.48178 257492.48178
          254895.67064 254895.67064 254895.67064 254895.67064 252435.42646 252435.42646
          252435.42646 252435.42646 250111.21561 250111.21561 250111.21561 250111.21561
          247922.53256 247922.53256 247922.53256 247922.53256 245868.9 245868.9
          245868.9 245868.9 243949.86897 243949.86897 243949.86897 243949.86897
          242165.01894 242165.01894 242165.01894 242165.01894 240513.95795 240513.95795
          240513.95795 240513.95795 238996.32269 238996.32269 238996.32269 238996.32269
          237611.77856 237611.77856 237611.77856 237611.77856 236360.01983 236360.01983
          236360.01983 236360.01983 235240.76961 235240.76961 235240.76961 235240.76961
          234253.78 234253.78 234253.78 234253.78 233398.83213 233398.83213
          233398.83213 233398.83213 232675.73619 232675.73619 232675.73619 232675.73619
          232084.33149 232084.33149 232084.33149 232084.33149 231624.4865 231624.4865
          231624.4865 231624.4865 231296.09892 231296.09892 231296.09892 231296.09892
          231099.0964 231099.0964 231099.0964 231099.0964 231033.43272 231033.43272
          231033.43272 231033.43272 231099.09561 231099.09561 231099.09561 231099.09561
          231296.09839 231296.09839 231296.09839 231296.09839 231624.4865 231624.4865
          231624.4865 231624.4865 232084.33149 232084.33149 232084.33149 232084.33149
          232675.73619 232675.73619 232675.73619 232675.73619 233398.83213 233398.83213
          233398.83213 233398.83213 234253.78 234253.78 234253.78 234253.78
          235240.76961 235240.76961 235240.76961 235240.76961 236360.01983 236360.01983
          236360.01983 236360.01983 237611.77856 237611.77856 237611.77856 237611.77856
          238996.32269 238996.32269 238996.32269 238996.32269 240513.95795 240513.95795
          240513.95795 240513.95795 242165.01894 242165.01894 242165.01894 242165.01894
          243949.86897 243949.86897 243949.86897 243949.86897 245868.9 245868.9
          245868.9 245868.9 247922.53256 247922.53256 247922.53256 247922.53256
          250111.21561 250111.21561 250111.21561 250111.21561 252435.42646 252435.42646
          252435.42646 252435.42646 254895.67064 254895.67064 254895.67064 254895.67064
          257492.48178 257492.48178 257492.48178 257492.48178 260226.42148 260226.42148
          260226.42148 260226.42148 263098.07918 263098.07918 263098.07918 263098.07918
          266108.07199 266108.07199 266108.07199 266108.07199 269257.04456 269257.04456
          269257.04456 269257.04456 272545.66894 272545.66894 272545.66894 272545.66894
          275974.64437 275974.64437 275974.64437 275974.64437 279544.69714 279544.69714
          279544.69714 279544.69714 283256.58041 283256.58041 283256.58041 283256.58041
          287111.074 287111.074 287111.074 287111.074 291108.98425 291108.98425
          291108.98425 291108.98425 295251.14377 295251.14377 295251.14377 295251.14377
          299538.41127 299538.41127 299538.41127 299538.41127 303971.67133 303971.67133
          303971.67133 303971.67133 308551.83418 308551.83418 308551.83418 308551.83418
          313279.83552 313279.83552 313279.83552 313279.83552 318156.63622 318156.63622
          318156.63622 318156.63622 323183.22214 323183.22214 323183.22214 323183.22214
          328360.60388 328360.60388 328360.60388 328360.60388 333689.81651 333689.81651
          333689.81651 333689.81651 339171.91932 339171.91932 339171.91932 339171.91932
          344807.99558 344807.99558 344807.99558 344807.99558 350599.15227 350599.15227
          350599.15227 350599.15227 356546.51978 356546.51978 356546.51978 356546.51978
          362651.25167 362651.25167 362651.25167 362651.25167 368914.52437 368914.52437
          368914.52437 368914.52437 375337.53688 375337.53688 375337.53688 375337.53688
          381921.51048 381921.51048 381921.51048 381921.51048 388667.68846 388667.68846
          388667.68846 388667.68846 395577.33578 395577.33578 395577.33578 395577.33578
          402651.73876 402651.73876 402651.73876 402651.73876 409892.20478 409892.20478
          409892.20478 409892.20478 417300.06195 417300.06195 417300.06195 417300.06195
          424876.65879 424876.65879 424876.65879 424876.65879 432623.36388 432623.36388
          432623.36388 432623.36388 440541.56556 440541.56556 440541.56556 440541.56556
          448632.67154 448632.67154 448632.67154 448632.67154 456898.10859 456898.10859
          456898.10859 456898.10859 465339.32218 465339.32218 465339.32218 465339.32218
          473957.7761 473957.7761 473957.7761 473957.7761 482754.95215 482754.95215
          482754.95215 482754.95215 491732.34973 491732.34973 491732.34973 491732.34973
          500891.48547 500891.48547 500891.48547 500891.48547 510233.8929 510233.8929
          510233.8929 510233.8929 519761.12203 519761.12203 519761.12203 519761.12203
          529474.73897 529474.73897 529474.73897 529474.73897 539376.32559 539376.32559
          539376.32559 539376.32559 549467.47906 549467.47906 549467.47906 549467.47906
          559749.8115 559749.8115 559749.8115 559749.8115 570224.94958 570224.94958
          570224.94958 570224.94958 580894.53411 580894.53411 580894.53411 580894.53411
          591760.21964 591760.21964 591760.21964 591760.21964 602823.67404 602823.67404
          602823.67404 602823.67404 614086.5781 614086.5781 614086.5781 614086.5781
          625550.62512 625550.62512 625550.62512 625550.62512 637217.52047 637217.52047
          637217.52047 637217.52047 649088.9812 649088.9812 649088.9812 649088.9812
          661166.73557 661166.73557 661166.73557 661166.73557 673452.52269 673452.52269
          673452.52269 673452.52269 685948.09201 685948.09201 685948.09201 685948.09201
          698655.20296 698655.20296 698655.20296 698655.20296 711575.62447 711575.62447
          711575.62447 711575.62447 724711.13455 724711.13455 724711.13455 724711.13455
          738063.51985 738063.51985 738063.51985 738063.51985 751634.57521 751634.57521
          751634.57521 751634.57521 765426.10323 765426.10323 765426.10323 765426.10323
          779439.91381 779439.91381 779439.91381 779439.91381 793677.8237 793677.8237
          793677.8237 793677.8237 808141.65609 808141.65609 808141.65609 808141.65609
          822833.24009 822833.24009 822833.24009 822833.24009 837754.41034 837754.41034
          837754.41034 837754.41034 852907.00652 852907.00652 852907.00652 852907.00652
          868292.87291 868292.87291 868292.87291 868292.87291 883913.85793 883913.85793
          883913.85793 883913.85793 899771.8137 899771.8137 899771.8137 899771.8137
          915868.59553 915868.59553 915868.59553 915868.59553 932206.06152 932206.06152
          932206.06152 932206.06152 948786.07207 948786.07207 948786.07207 948786.07207
          965610.48943 965610.48943 965610.48943 965610.48943 982681.17722 982681.17722
          982681.17722 982681.17722 1000000 1000000 1000000 1000000
        </DataArray>
        <DataArray type="Float64" Name="q" NumberOfComponents="3" format="ascii" RangeMin="2.2801288029e-15" RangeMax="2.004493377e-07">
          1.9901337135e-07 -2.4627079482e-22 6.5845282332e-22 2.004493377e-07 -5.6986409536e-22 -1.7022134563e-22
          2.004493377e-07 5.6972764957e-22 -1.9655467945e-22 1.9901337135e-07 -2.2828479334e-22 -1.5404393283e-21
          1.9901337135e-07 -2.5970754564e-21 1.3674355385e-21 2.004493377e-07 6.7282432387e-22 -5.3699737072e-22
          2.004493377e-07 -1.209312472e-21 -9.8277339724e-23 1.9901337135e-07 -2.9818374829e-21 -1.8155213471e-21
          1.9615222887e-07 -2.9511258143e-21 -2.3359239384e-21 1.9615222887e-07 -2.8090883045e-21 1.4217663198e-21
          1.9615222887e-07 2.0726173644e-22 -1.2667485315e-21 1.9615222887e-07 -3.2282946662e-22 1.3055029786e-21
          1.9331266151e-07 -2.3734601697e-22 8.9376194983e-22 1.9331266151e-07 -7.7322505721e-23 -1.1300895216e-21
          1.9331266151e-07 -1.1506715788e-21 -2.4912146182e-22 1.9331266151e-07 -8.006767215e-22 -1.6916562272e-21
          1.9049465592e-07 3.1475190766e-21 2.8335211936e-21 1.9049465592e-07 3.4332399295e-21 -3.2116998868e-21
          1.9049465592e-07 -3.5100532126e-21 3.1757278838e-21 1.9049465592e-07 -4.0843455855e-21 -3.5359205754e-21
          1.8769819342e-07 3.949493826e-21 3.32935445e-21 1.8769819342e-07 4.3498321867e-21 -4.0421380546e-21
          1.8769819342e-07 -3.2676765014e-21 2.8954537536e-21 1.8769819342e-07 -3.5181891853e-21 -3.9258747134e-21
          1.8492324997e-07 2.8611026127e-21 2.3684678288e-21 1.8492324997e-07 3.3727668146e-21 -2.6435498477e-21
          1.8492324997e-07 -1.6380460283e-21 2.5272865065e-21 1.8492324997e-07 -1.4943626852e-21 -2.3684678288e-21
          1.8216979624e-07 2.3971858586e-21 5.6574037182e-22 1.8216979624e-07 2.0152744991e-21 2.6979002216e-23
          1.8216979624e-07 5.2271906437e-22 1.0242104032e-21 1.8216979624e-07 2.0672754252e-22 -1.8097834526e-22
          1.7943779756e-07 1.2390739183e-21 4.0033836075e-22 1.7943779756e-07 2.0868024766e-21 -1.5640901032e-22
          1.7943779756e-07 -1.5084546031e-21 4.2490769568e-22 1.7943779756e-07 -1.3909864283e-21 6.9534338625e-23
          1.7672721396e-07 1.0490343494e-21 2.8203545267e-21 1.7672721396e-07 5.8935948441e-22 -6.3944837661e-22
          1.7672721396e-07 -6.1912093074e-22 2.0622331416e-21 1.7672721396e-07 -7.2430443812e-22 6.8682304759e-22
          1.7403800016e-07 2.5626560926e-21 3.1791559963e-21 1.7403800016e-07 2.7902452749e-21 3.252391339e-22
          1.7403800016e-07 -1.8921732131e-21 3.6621953626e-21 1.7403800016e-07 -2.4664655859e-21 -2.9204957506e-22
          1.713701056e-07 1.4957106556e-22 1.2951187558e-21 1.713701056e-07 4.8848608899e-22 1.6307421125e-21
          1.713701056e-07 9.0143195141e-22 1.5456314397e-21 1.713701056e-07 6.6320393499e-22 1.5636174412e-21
          1.6872347445e-07 2.2210518193e-21 9.8647440133e-22 1.6872347445e-07 1.9291886326e-21 2.6979002216e-23
          1.6872347445e-07 8.5342989229e-22 1.8968311306e-21 1.6872347445e-07 9.3733573147e-22 1.8579767983e-22
          1.6609804562e-07 2.500978144e-21 2.294759824e-21 1.6609804562e-07 2.3617913012e-21 6.8682304759e-22
          1.6609804562e-07 -3.5787621855e-22 2.0016918038e-21 1.6609804562e-07 4.5312809208e-23 2.774916861e-22
          1.6349375275e-07 1.295907561e-21 1.5663998853e-21 1.6349375275e-07 9.4635370352e-22 -6.610622611e-23
          1.6349375275e-07 -1.9291520721e-22 9.4911117632e-22 1.6349375275e-07 -2.9075154721e-22 -1.3323089745e-22
          1.6091052429e-07 1.6852592822e-21 2.8898888654e-21 1.6091052429e-07 1.8563626273e-21 -5.9930270749e-22
          1.6091052429e-07 -1.50636777e-21 3.3909142331e-21 1.6091052429e-07 -1.5309371049e-21 -6.4844137735e-22
          1.5834828346e-07 2.138450699e-22 2.4753653925e-21 1.5834828346e-07 9.7581728696e-23 1.9006320199e-21
          1.5834828346e-07 -9.4790634268e-22 2.2494220435e-21 1.5834828346e-07 -6.7282432387e-22 1.5584253298e-21
          1.5580694827e-07 -8.4703294725e-22 1.0162358477e-21 1.5580694827e-07 -9.5550812136e-22 3.1054479915e-21
          1.5580694827e-07 -9.4290061969e-23 3.989471387e-22 1.5580694827e-07 1.4185112136e-23 3.3559606754e-21
          1.532864316e-07 1.2266028624e-22 1.8051371243e-21 1.532864316e-07 -2.8217457488e-22 -1.743950118e-22
          1.532864316e-07 -9.6538312154e-22 1.713443118e-21 1.532864316e-07 -7.9877627683e-22 -6.4715004054e-23
          1.5078664115e-07 2.6445682929e-21 1.6567026695e-21 1.5078664115e-07 2.9073656442e-21 -5.4330781259e-23
          1.5078664115e-07 6.0032115271e-23 9.9685862413e-22 1.5078664115e-07 -1.0384222795e-23 -2.8027413021e-22
          1.483074795e-07 1.0330170155e-21 -7.1278360458e-22 1.483074795e-07 1.5798893864e-21 1.5598165518e-21
          1.483074795e-07 2.8090883045e-21 -3.4600757949e-22 1.483074795e-07 2.0329809179e-21 1.6940658945e-21
          1.4584884415e-07 2.0431105294e-21 2.0324716953e-21 1.4584884415e-07 2.4020983874e-21 -1.0899438525e-21
          1.4584884415e-07 1.2268574737e-21 1.348058315e-21 1.4584884415e-07 8.3430728007e-22 -5.8891848469e-22
          1.4341062751e-07 2.9222463674e-21 2.7144754083e-21 1.4341062751e-07 2.7388583549e-21 -3.7855146993e-22
          1.4341062751e-07 -3.1731452102e-22 2.3722687182e-21 1.4341062751e-07 4.9461504064e-23 3.0779891558e-23
          1.4099271694e-07 3.2852215031e-21 1.9525531339e-21 1.4099271694e-07 2.8099703039e-21 -2.0554768019e-22
          1.4099271694e-07 1.9669112524e-22 2.2276351527e-21 1.4099271694e-07 7.0550466009e-22 -4.6729002576e-23
          1.3859499479e-07 1.9295364381e-21 1.6335245566e-21 1.3859499479e-07 2.177198455e-21 -2.6748024013e-22
          1.3859499479e-07 -3.1202921541e-22 1.3158872014e-21 1.3859499479e-07 -9.1867909028e-22 -5.8511759535e-22
          1.3621733841e-07 7.2437266101e-22 8.3284783512e-22 1.3621733841e-07 1.0542946837e-21 -5.2939559203e-23
          1.3621733841e-07 -2.0156040243e-22 1.083360519e-21 1.3621733841e-07 -2.4740740557e-22 -3.5259091295e-22
          1.3385962021e-07 2.2689357129e-22 -7.9687583216e-22 1.3385962021e-07 1.1841839718e-22 1.1712536359e-21
          1.3385962021e-07 2.0586868636e-21 -7.2975116082e-22 1.3385962021e-07 2.1458843695e-21 1.2383783073e-21
          1.3152170766e-07 -5.5709517659e-22 -4.2110680634e-22 1.3152170766e-07 -7.0077851973e-22 2.256005377e-21
          1.3152170766e-07 1.232583779e-21 -8.7957683769e-22 1.3152170766e-07 1.6099986382e-21 2.4639627245e-21
          1.2920346333e-07 -6.9108990796e-22 -1.0048331796e-21 1.2920346333e-07 -2.8460921348e-22 2.3141370476e-21
          1.2920346333e-07 2.2459689597e-21 -5.7093248321e-22 1.2920346333e-07 1.9144011037e-21 1.8802363512e-21
          1.2690474496e-07 5.4546866318e-22 -1.0823420738e-21 1.2690474496e-07 4.6748465788e-22 1.4179654305e-21
          1.2690474496e-07 2.8173640684e-21 -8.3182938989e-22 1.2690474496e-07 2.9495856608e-21 1.0332034039e-21
          1.2462540545e-07 5.3245427324e-22 -1.3210793128e-21 1.2462540545e-07 5.377736903e-22 1.7407948971e-21
          1.2462540545e-07 3.7746453288e-21 -1.0951359638e-21 1.2462540545e-07 3.7547929941e-21 1.765364232e-21
          1.223652929e-07 1.2363721827e-21 -4.5847003135e-22 1.223652929e-07 1.3624514414e-21 1.5881867761e-22
          1.223652929e-07 1.8516331414e-21 -4.5847003135e-22 1.223652929e-07 1.3810989424e-21 1.5881867761e-22
          1.201242507e-07 2.3913322477e-21 1.6439087794e-21 1.201242507e-07 2.4439240013e-21 -1.8997134599e-22
          1.201242507e-07 1.2150479174e-21 1.4605207669e-21 1.201242507e-07 1.3151325076e-21 1.7680467909e-22
          1.1790211751e-07 3.7969198164e-21 2.7943939698e-21 1.1790211751e-07 3.8511574035e-21 -4.9342358908e-22
          1.1790211751e-07 1.283957317e-22 3.5279460199e-21 1.1790211751e-07 -5.2511941569e-24 -8.6019961416e-22
          1.1569872732e-07 2.5818594134e-21 1.6349157787e-21 1.1569872732e-07 2.5206565759e-21 -3.8893569273e-22
          1.1569872732e-07 6.5156828145e-22 1.4269584312e-21 1.1569872732e-07 6.8145703343e-22 6.9534338625e-23
          1.1351390951e-07 9.2761300826e-22 1.0266200705e-21 1.1351390951e-07 1.1781256921e-21 -1.2284667465e-22
          1.1351390951e-07 4.2060672386e-22 1.0266200705e-21 1.1351390951e-07 7.840003371e-23 -4.4048402988e-22
          1.1134748886e-07 1.7641003156e-21 1.2965099779e-21 1.1134748886e-07 2.1146975897e-21 4.2212525157e-22
          1.1134748886e-07 6.514875729e-22 1.638716668e-21 1.1134748886e-07 8.3939950622e-23 3.304312453e-22
          1.0919928564e-07 1.8735257121e-21 2.0518489189e-21 1.0919928564e-07 1.7969670403e-21 -2.7647324087e-22
          1.0919928564e-07 2.0789826471e-22 1.9601549126e-21 1.0919928564e-07 2.9509577061e-22 6.5733449284e-23
          1.0706911558e-07 9.8124817849e-22 1.1008372979e-21 1.0706911558e-07 9.1862000752e-22 1.0361222938e-21
          1.0706911558e-07 1.1463706069e-21 1.0337126265e-21 1.0706911558e-07 7.8738274894e-22 1.2866349777e-21
          1.0495679002e-07 1.587758262e-21 1.7566940655e-21 1.0495679002e-07 1.7144399375e-21 2.2334729325e-22
          1.0495679002e-07 -9.1740603374e-23 1.9523667455e-21 1.0495679002e-07 -1.0934468789e-22 8.5806283845e-23
          1.0286211587e-07 1.3027455058e-22 2.2404290428e-22 1.0286211587e-07 2.2339389035e-22 2.1052977007e-21
          1.0286211587e-07 1.4916950611e-21 2.5760523995e-22 1.0286211587e-07 1.3611193021e-21 2.2551233775e-21
          1.0078489568e-07 6.5772310084e-22 1.4390567103e-21 1.0078489568e-07 8.8531228315e-22 8.9218433936e-22
          1.0078489568e-07 4.4751750318e-22 1.9523667455e-21 1.0078489568e-07 1.1145314677e-22 5.9582465235e-22
          9.8724927718e-08 1.6251339727e-21 2.3508046616e-21 9.8724927718e-08 1.4730600456e-21 5.7834787348e-22
          9.8724927718e-08 -4.4757658594e-22 2.3720823298e-21 9.8724927718e-08 -4.833871718e-22 3.4011985707e-22
          9.6682005995e-08 1.5281671465e-21 2.0402598624e-21 9.6682005995e-08 1.7023416584e-21 5.6087109462e-22
          9.6682005995e-08 -1.1596213279e-22 2.0279751949e-21 9.6682005995e-08 -1.413543844e-22 2.8908074253e-22
          9.4655920321e-08 7.4336796759e-22 1.6193394445e-21 9.4655920321e-08 4.0730361117e-22 6.0412204206e-22
          9.4655920321e-08 2.840433572e-23 1.6864641158e-21 9.4655920321e-08 -9.0709672488e-23 7.875100546e-22
          9.2646456361e-08 1.654895419e-21 2.1733043715e-21 9.2646456361e-08 1.5676979131e-21 2.4773023977e-22
          9.2646456361e-08 -9.2602625765e-22 1.8892293519e-21 9.2646456361e-08 -6.0060073533e-22 1.2247389783e-22
          9.0653395685e-08 1.8338676398e-21 2.4011481651e-21 9.0653395685e-08 2.1058784917e-21 -5.5345570435e-22
          9.0653395685e-08 -6.948442002e-22 2.7097925196e-21 9.0653395685e-08 -9.6910330233e-22 -6.3615670988e-22
          8.8676515826e-08 3.9449723543e-22 1.4035939299e-21 8.8676515826e-08 6.5257758655e-22 8.3215222409e-22
          8.8676515826e-08 4.5240840617e-22 1.1407965786e-21 8.8676515826e-08 4.3645015502e-22 1.2202059174e-21
          8.6715590333e-08 -1.3241504797e-21 -4.2819936241e-22 8.6715590333e-08 -1.5097867424e-21 2.4257175e-21
          8.6715590333e-08 1.4364265431e-21 -3.7006769181e-22 8.6715590333e-08 1.208234944e-21 2.3675858294e-21
          8.4770388828e-08 -8.1560404177e-22 5.275317079e-23 8.4770388828e-08 -1.7786058129e-22 1.2972055889e-21
          8.4770388828e-08 5.7335463615e-22 -1.5191250996e-22 8.4770388828e-08 2.7842028264e-22 1.468308934e-21
          8.2840677065e-08 -1.6492281965e-21 -8.6988822593e-22 8.2840677065e-08 -1.7448162863e-21 1.5600029402e-21
          8.2840677065e-08 1.3790836777e-21 -1.2333725843e-21 8.2840677065e-08 1.4075470962e-21 2.0487436405e-21
          8.0926216987e-08 -2.3241734649e-21 -6.1228298598e-22 8.0926216987e-08 -2.0278137778e-21 1.7750528438e-21
          8.0926216987e-08 7.4428407847e-22 -1.2598423639e-21 8.0926216987e-08 4.7699022676e-22 1.9797185245e-21
          7.9026766783e-08 -1.4436122934e-21 -9.6088662117e-22 7.9026766783e-08 -1.2864394491e-21 1.273331865e-21
          7.9026766783e-08 4.3776066852e-22 -9.273242855e-22 7.9026766783e-08 4.3326416815e-22 1.3068942007e-21
          7.7142080954e-08 -1.0085067633e-21 -5.7542898358e-22 7.7142080954e-08 -1.1902489425e-21 1.0447924603e-21
          7.7142080954e-08 9.5227553739e-22 -5.2958198045e-22 7.7142080954e-08 8.1023802762e-22 1.0325077929e-21
          7.527191037e-08 -2.362934603e-22 -7.9947188786e-22 7.527191037e-08 -1.9044645716e-22 1.4805936014e-21
          7.527191037e-08 1.8978404357e-21 -6.9549321413e-22 7.527191037e-08 2.0734402811e-21 1.4101772634e-21
          7.3416002332e-08 1.2342412016e-22 -5.7542898358e-22 7.3416002332e-08 1.586322892e-22 1.2707358093e-21
          7.3416002332e-08 2.0232240833e-21 -7.7110166359e-22 7.3416002332e-08 2.0003005817e-21 1.4082768187e-21
          7.1574100635e-08 -1.7518381704e-22 -7.4912838436e-22 7.1574100635e-08 -1.690414833e-22 1.827296792e-21
          7.1574100635e-08 2.3889566918e-21 -6.5743437809e-22 7.1574100635e-08 2.3156896867e-21 1.6439087794e-21
          6.9745945634e-08 -1.8322659544e-22 -2.5069907229e-22 6.9745945634e-08 1.9479068057e-22 1.8369854037e-21
          6.9745945634e-08 2.1197623954e-21 -7.9595727218e-23 6.9745945634e-08 2.0823059762e-21 1.7911384006e-21
          6.7931274305e-08 -5.4121763399e-22 -4.2560330671e-22 6.7931274305e-08 -4.8555471343e-22 1.8724481841e-21
          6.7931274305e-08 1.5452029256e-21 -4.7145030985e-22 6.7931274305e-08 1.5437775921e-21 1.8847328515e-21
          6.6129820313e-08 4.1230933415e-22 -1.2215106363e-22 6.6129820313e-08 5.4370800982e-22 2.7248596311e-22
          6.6129820313e-08 1.3538187318e-21 -3.8494841497e-22 6.6129820313e-08 1.0116120416e-21 5.0172097879e-22
          6.4341314076e-08 5.2255764727e-22 -6.1423337327e-23 6.4341314076e-08 2.2230387671e-22 4.7075469882e-22
          6.4341314076e-08 6.1079856972e-22 2.4722101715e-22 6.4341314076e-08 6.9410199207e-22 3.4549835688e-22
          6.2565482832e-08 -4.1958827863e-22 -9.6468751051e-22 6.2565482832e-08 -4.2348236218e-22 1.0795596297e-21
          6.2565482832e-08 1.1823675812e-21 -7.8129949797e-22 6.2565482832e-08 1.3557191765e-21 9.8786562339e-22
          6.0802050711e-08 -3.7723516181e-23 -2.4221529417e-22 6.0802050711e-08 -9.7280520285e-23 6.5344710033e-22
          6.0802050711e-08 8.7389712947e-22 -1.0467428476e-22 6.0802050711e-08 9.8769172063e-22 8.9167511675e-22
          5.9050738794e-08 7.4617203749e-22 6.7212871284e-22 5.9050738794e-08 5.7978569264e-22 4.887407003e-22
          5.9050738794e-08 9.2709129998e-22 2.6279735135e-22 5.9050738794e-08 8.468590445e-22 6.7212871284e-22
          5.7311265193e-08 1.9681635795e-21 8.2455044541e-22 5.7311265193e-08 1.784775567e-21 -9.3891334194e-22
          5.7311265193e-08 -1.1458339639e-22 6.5344710033e-22 5.7311265193e-08 -1.2250556018e-23 -7.3424766119e-22
          5.5583345111e-08 2.186713164e-21 1.9790229135e-21 5.5583345111e-08 2.3502488418e-21 -1.1745453027e-21
          5.5583345111e-08 -5.8412077591e-22 1.795634901e-21 5.5583345111e-08 -1.0356255568e-21 -1.0828512964e-21
          5.3866690919e-08 6.697997541e-22 5.0241658982e-22 5.3866690919e-08 6.3991100212e-22 2.9686890963e-22
          5.3866690919e-08 -1.0187021486e-22 5.9411059609e-22 5.3866690919e-08 9.6761261106e-24 1.1348089709e-22
          5.2161012225e-08 1.2054649855e-21 8.6260928145e-22 5.2161012225e-08 1.2543831555e-21 -7.8129949797e-22
          5.2161012225e-08 -4.8286546353e-22 1.2383783073e-21 5.2161012225e-08 -5.8602122058e-22 -6.8061249096e-22
          5.0466015944e-08 8.9357556142e-22 8.6260928145e-22 5.0466015944e-08 7.3925338418e-22 -1.5501778827e-22
          5.0466015944e-08 -2.1799376475e-22 3.2802157802e-22 5.0466015944e-08 -1.6600442788e-22 -2.5570479528e-22
          4.8781406372e-08 1.2624691855e-22 -1.6660684471e-22 4.8781406372e-08 2.3932884296e-22 5.8822287366e-22
          4.8781406372e-08 1.222048952e-21 -2.4601618351e-22 4.8781406372e-08 1.1360858212e-21 6.0950054187e-22
          4.7106885258e-08 7.6569484694e-23 -6.5604315603e-22 4.7106885258e-08 5.8553941837e-23 8.5361628071e-22
          4.7106885258e-08 1.4001812004e-21 -7.477371623e-22 4.7106885258e-08 1.5163342916e-21 7.6192227444e-22
          4.5442151881e-08 3.2857115491e-22 -6.1538826429e-22 4.5442151881e-08 2.7699327638e-22 2.2543412634e-22
          4.5442151881e-08 1.2461431758e-21 -6.7351993489e-22 4.5442151881e-08 1.1713405873e-21 4.4238447455e-22
          4.3786903119e-08 -3.2424398723e-22 -1.1183140767e-21 4.3786903119e-08 -2.7686140066e-22 6.0829570822e-22
          4.3786903119e-08 1.6529887315e-21 -1.210008083e-21 4.3786903119e-08 1.6892107757e-21 7.9168372077e-22
          4.2140833525e-08 1.1359114702e-22 -1.1480755231e-21 4.2140833525e-08 -5.5228611878e-24 3.1003557654e-22
          4.2140833525e-08 9.6280412156e-22 -8.4842416931e-22 4.2140833525e-08 1.0765987127e-21 -2.1555912616e-22
          4.0503635406e-08 -3.8682556109e-22 -1.0214279591e-21 4.0503635406e-08 -2.2063017473e-22 2.9761446328e-23
          4.0503635406e-08 7.3549284911e-22 -1.0795596297e-21 4.0503635406e-08 6.4983092664e-22 2.4671179454e-22
          3.8874998893e-08 4.1240252836e-22 -1.9497706898e-22 3.8874998893e-08 1.2892992563e-22 -3.0794874345e-22
          3.8874998893e-08 1.3896634291e-22 -2.6539340704e-22 3.8874998893e-08 2.681167684e-22 -2.0397006972e-22
          3.7254612022e-08 3.4179523181e-22 1.5172612154e-22 3.7254612022e-08 4.2315161239e-22 -7.0925560681e-24
          3.7254612022e-08 1.913966795e-23 3.6867646975e-22 3.7254612022e-08 -1.1113488263e-22 -2.2404290428e-22
          3.5642160807e-08 -3.0972188247e-22 5.8131670601e-23 3.5642160807e-08 -3.7961651227e-22 2.9306802029e-22