<?xml version="1.0"?>
<VTKFile type="UnstructuredGrid" version="0.1" byte_order="LittleEndian" header_type="UInt32">
  <UnstructuredGrid>
    <FieldData>
      <DataArray type="Int8" Name="OGS_VERSION" NumberOfTuples="41" format="ascii" RangeMin="45" RangeMax="121">
        54 46 50 46 48 45
        51 54 56 45 103 57
        55 48 52 100 98 50
        56 97 46 100 105 114
        116 121 46 50 48 49
        57 48 54 49 50 48
        57 51 56 50 51
      </DataArray>
    </FieldData>
    <Piece NumberOfPoints="804" NumberOfCells="200">
      <PointData>
        <DataArray type="Float64" Name="pressure" format="ascii" RangeMin="37190.135916" RangeMax="500000">
          487525.67504 500000 500000 487525.67504 487525.67504 500000
          500000 487525.67504 475298.23705 475298.23705 475298.23705 475298.23705
          463314.57391 463314.57391 463314.57391 463314.57391 451571.57523 451571.57523
          451571.57523 451571.57523 440066.13331 440066.13331 440066.13331 440066.13331
          428795.144 428795.144 428795.144 428795.144 417755.50753 417755.50753
          417755.50753 417755.50753 406944.12949 406944.12949 406944.12949 406944.12949
          396357.92159 396357.92159 396357.92159 396357.92159 385993.80265 385993.80265
          385993.80265 385993.80265 375848.69937 375848.69937 375848.69937 375848.69937
          365919.54725 365919.54725 365919.54725 365919.54725 356203.29144 356203.29144
          356203.29144 356203.29144 346696.8876 346696.8876 346696.8876 346696.8876
          337397.30272 337397.30272 337397.30272 337397.30272 328301.51602 328301.51602
          328301.51602 328301.51602 319406.51973 319406.51973 319406.51973 319406.51973
          310709.31994 310709.31994 310709.31994 310709.31994 302206.93743 302206.93743
          302206.93743 302206.93743 293896.40851 293896.40851 293896.40851 293896.40851
          285774.78576 285774.78576 285774.78576 285774.78576 277839.1389 277839.1389
          277839.1389 277839.1389 270086.55552 270086.55552 270086.55552 270086.55552
          262514.14192 262514.14192 262514.14192 262514.14192 255119.02383 255119.02383
          255119.02383 255119.02383 247898.34722 247898.34722 247898.34722 247898.34722
          240849.27899 240849.27899 240849.27899 240849.27899 233969.00778 233969.00778
          233969.00778 233969.00778 227254.74466 227254.74466 227254.74466 227254.74466
          220703.72385 220703.72385 220703.72385 220703.72385 214313.20345 214313.20345
          214313.20345 214313.20345 208080.46611 208080.46611 208080.46611 208080.46611
          202002.81977 202002.81977 202002.81977 202002.81977 196077.59825 196077.59825
          196077.59825 196077.59825 190302.16198 190302.16198 190302.16198 190302.16198
          184673.89864 184673.89864 184673.89864 184673.89864 179190.22377 179190.22377
          179190.22377 179190.22377 173848.58142 173848.58142 173848.58142 173848.58142
          168646.44475 168646.44475 168646.44475 168646.44475 163581.31665 163581.31665
          163581.31665 163581.31665 158650.73029 158650.73029 158650.73029 158650.73029
          153852.24974 153852.24974 153852.24974 153852.24974 149183.47049 149183.47049
          149183.47049 149183.47049 144642.02005 144642.02005 144642.02005 144642.02005
          140225.55841 140225.55841 140225.55841 140225.55841 135931.77863 135931.77863
          135931.77863 135931.77863 131758.40734 131758.40734 131758.40734 131758.40734
          127703.20519 127703.20519 127703.20519 127703.20519 123763.96739 123763.96739
          123763.96739 123763.96739 119938.52414 119938.52414 119938.52414 119938.52414
          116224.74113 116224.74113 116224.74113 116224.74113 112620.51993 112620.51993
          112620.51993 112620.51993 109123.79846 109123.79846 109123.79846 109123.79846
          105732.55142 105732.55142 105732.55142 105732.55142 102444.79064 102444.79064
          102444.79064 102444.79064 99258.56554 99258.56554 99258.56554 99258.56554
          96171.963474 96171.963474 96171.963474 96171.963474 93183.110106 93183.110106
          93183.110106 93183.110106 90290.169773 90290.169773 90290.169773 90290.169773
          87491.345824 87491.345824 87491.345824 87491.345824 84784.880958 84784.880958
          84784.880958 84784.880958 82169.057543 82169.057543 82169.057543 82169.057543
          79642.197928 79642.197928 79642.197928 79642.197928 77202.664743 77202.664743
          77202.664743 77202.664743 74848.861183 74848.861183 74848.861183 74848.861183
          72579.23129 72579.23129 72579.23129 72579.23129 70392.260214 70392.260214
          70392.260214 70392.260214 68286.474474 68286.474474 68286.474474 68286.474474
          66260.442198 66260.442198 66260.442198 66260.442198 64312.773361 64312.773361
          64312.773361 64312.773361 62442.120011 62442.120011 62442.120011 62442.120011
          60647.176481 60647.176481 60647.176481 60647.176481 58926.679597 58926.679597
          58926.679597 58926.679597 57279.408876 57279.408876 57279.408876 57279.408876
          55704.186708 55704.186708 55704.186708 55704.186708 54199.87854 54199.87854
          54199.87854 54199.87854 52765.393043 52765.393043 52765.393043 52765.393043
          51399.682273 51399.682273 51399.682273 51399.682273 50101.741825 50101.741825
          50101.741825 50101.741825 48870.610977 48870.610977 48870.610977 48870.610977
          47705.372824 47705.372824 47705.372824 47705.372824 46605.154413 46605.154413
          46605.154413 46605.154413 45569.126859 45569.126859 45569.126859 45569.126859
          44596.505461 44596.505461 44596.505461 44596.505461 43686.54981 43686.54981
          43686.54981 43686.54981 42838.563887 42838.563887 42838.563887 42838.563887
          42051.896156 42051.896156 42051.896156 42051.896156 41325.93965 41325.93965
          41325.93965 41325.93965 40660.132052 40660.132052 40660.132052 40660.132052
          40053.955768 40053.955768 40053.955768 40053.955768 39506.93799 39506.93799
          39506.93799 39506.93799 39018.650764 39018.650764 39018.650764 39018.650764
          38588.711035 38588.711035 38588.711035 38588.711035 38216.780703 38216.780703
          38216.780703 38216.780703 37902.566663 37902.566663 37902.566663 37902.566663
          37645.82084 37645.82084 37645.82084 37645.82084 37446.340223 37446.340223
          37446.340223 37446.340223 37303.966888 37303.966888 37303.966888 37303.966888
          37218.588359 37218.588359 37218.588359 37218.588359 37190.135916 37190.135916
          37190.135916 37190.135916 37218.588017 37218.588017 37218.588017 37218.588017
          37303.96666 37303.96666 37303.96666 37303.96666 37446.340223 37446.340223
          37446.340223 37446.340223 37645.82084 37645.82084 37645.82084 37645.82084
          37902.566663 37902.566663 37902.566663 37902.566663 38216.780703 38216.780703
          38216.780703 38216.780703 38588.711035 38588.711035 38588.711035 38588.711035
          39018.650764 39018.650764 39018.650764 39018.650764 39506.93799 39506.93799
          39506.93799 39506.93799 40053.955768 40053.955768 40053.955768 40053.955768
          40660.132052 40660.132052 40660.132052 40660.132052 41325.939649 41325.939649
          41325.939649 41325.939649 42051.896155 42051.896155 42051.896155 42051.896155
          42838.563887 42838.563887 42838.563887 42838.563887 43686.54981 43686.54981
          43686.54981 43686.54981 44596.505461 44596.505461 44596.505461 44596.505461
          45569.126859 45569.126859 45569.126859 45569.126859 46605.154413 46605.154413
          46605.154413 46605.154413 47705.372824 47705.372824 47705.372824 47705.372824
          48870.610977 48870.610977 48870.610977 48870.610977 50101.741825 50101.741825
          50101.741825 50101.741825 51399.682273 51399.682273 51399.682273 51399.682273
          52765.393043 52765.393043 52765.393043 52765.393043 54199.87854 54199.87854
          54199.87854 54199.87854 55704.186708 55704.186708 55704.186708 55704.186708
          57279.408876 57279.408876 57279.408876 57279.408876 58926.679597 58926.679597
          58926.679597 58926.679597 60647.176481 60647.176481 60647.176481 60647.176481
          62442.120011 62442.120011 62442.120011 62442.120011 64312.773361 64312.773361
          64312.773361 64312.773361 66260.442198 66260.442198 66260.442198 66260.442198
          68286.474474 68286.474474 68286.474474 68286.474474 70392.260214 70392.260214
          70392.260214 70392.260214 72579.23129 72579.23129 72579.23129 72579.23129
          74848.861183 74848.861183 74848.861183 74848.861183 77202.664743 77202.664743
          77202.664743 77202.664743 79642.197928 79642.197928 79642.197928 79642.197928
          82169.057543 82169.057543 82169.057543 82169.057543 84784.880958 84784.880958
          84784.880958 84784.880958 87491.345824 87491.345824 87491.345824 87491.345824
          90290.169773 90290.169773 90290.169773 90290.169773 93183.110106 93183.110106
          93183.110106 93183.110106 96171.963474 96171.963474 96171.963474 96171.963474
          99258.56554 99258.56554 99258.56554 99258.56554 102444.79064 102444.79064
          102444.79064 102444.79064 105732.55142 105732.55142 105732.55142 105732.55142
          109123.79846 109123.79846 109123.79846 109123.79846 112620.51993 112620.51993
          112620.51993 112620.51993 116224.74113 116224.74113 116224.74113 116224.74113
          119938.52414 119938.52414 119938.52414 119938.52414 123763.96739 123763.96739
          123763.96739 123763.96739 127703.20519 127703.20519 127703.20519 127703.20519
          131758.40734 131758.40734 131758.40734 131758.40734 135931.77863 135931.77863
          135931.77863 135931.77863 140225.55841 140225.55841 140225.55841 140225.55841
          144642.02005 144642.02005 144642.02005 144642.02005 149183.47049 149183.47049
          149183.47049 149183.47049 153852.24974 153852.24974 153852.24974 153852.24974
          158650.73029 158650.73029 158650.73029 158650.73029 163581.31665 163581.31665
          163581.31665 163581.31665 168646.44475 168646.44475 168646.44475 168646.44475
          173848.58142 173848.58142 173848.58142 173848.58142 179190.22377 179190.22377
          179190.22377 179190.22377 184673.89864 184673.89864 184673.89864 184673.89864
          190302.16198 190302.16198 190302.16198 190302.16198 196077.59825 196077.59825
          196077.59825 196077.59825 202002.81977 202002.81977 202002.81977 202002.81977
          208080.46611 208080.46611 208080.46611 208080.46611 214313.20345 214313.20345
          214313.20345 214313.20345 220703.72385 220703.72385 220703.72385 220703.72385
          227254.74466 227254.74466 227254.74466 227254.74466 233969.00778 233969.00778
          233969.00778 233969.00778 240849.27899 240849.27899 240849.27899 240849.27899
          247898.34722 247898.34722 247898.34722 247898.34722 255119.02383 255119.02383
          255119.02383 255119.02383 262514.14192 262514.14192 262514.14192 262514.14192
          270086.55552 270086.55552 270086.55552 270086.55552 277839.1389 277839.1389
          277839.1389 277839.1389 285774.78576 285774.78576 285774.78576 285774.78576
          293896.40851 293896.40851 293896.40851 293896.40851 302206.93743 302206.93743
          302206.93743 302206.93743 310709.31994 310709.31994 310709.31994 310709.31994
          319406.51973 319406.51973 319406.51973 319406.51973 328301.51602 328301.51602
          328301.51602 328301.51602 337397.30272 337397.30272 337397.30272 337397.30272
          346696.8876 346696.8876 346696.8876 346696.8876 356203.29144 356203.29144
          356203.29144 356203.29144 365919.54725 365919.54725 365919.54725 365919.54725
          375848.69937 375848.69937 375848.69937 375848.69937 385993.80265 385993.80265
          385993.80265 385993.80265 396357.92159 396357.92159 396357.92159 396357.92159
          406944.12949 406944.12949 406944.12949 406944.12949 417755.50753 417755.50753
          417755.50753 417755.50753 428795.144 428795.144 428795.144 428795.144
          440066.13331 440066.13331 440066.13331 440066.13331 451571.57523 451571.57523
          451571.57523 451571.57523 463314.57391 463314.57391 463314.57391 463314.57391
          475298.23705 475298.23705 475298.23705 475298.23705 487525.67504 487525.67504
          487525.67504 487525.67504 500000 500000 500000 500000
        </DataArray>
        <DataArray type="Float64" Name="q" NumberOfComponents="3" format="ascii" RangeMin="9.8817577955e-16" RangeMax="1.4437876111e-07">
          1.4295001704e-07 -3.5810585855e-23 5.1970698027e-22 1.4437876111e-07 -1.2539278773e-23 -5.7195092844e-22
          1.4437876111e-07 1.663522334e-22 -4.0172958281e-22 1.4295001704e-07 -4.809525332e-23 -8.2125877868e-22
          1.4295001704e-07 -9.2713789709e-22 4.0673530579e-22 1.4437876111e-07 -8.2955616839e-23 -1.3805023202e-22
          1.4437876111e-07 -4.5422814229e-22 3.2171113614e-23 1.4295001704e-07 -9.2099556335e-22 -7.1728010494e-22
          1.4011053897e-07 -7.807777897e-22 -6.9289715843e-22 1.4011053897e-07 -8.2519945933e-22 6.7351993489e-22
          1.4011053897e-07 -1.1127924401e-22 -3.5069046828e-22 1.4011053897e-07 -9.3675159492e-23 5.8182592862e-22
          1.3730707075e-07 -1.985072053e-21 -1.5786845527e-21 1.3730707075e-07 -1.9537579675e-21 1.8523753495e-21
          1.3730707075e-07 1.6087006104e-21 -1.2946095332e-21 1.3730707075e-07 1.6903581994e-21 1.6599943362e-21
          1.3453958676e-07 1.8399042936e-22 8.2904694578e-22 1.3453958676e-07 -3.894083548e-24 6.7922126891e-22
          1.3453958676e-07 -5.3458770343e-22 8.6260928145e-22 1.3453958676e-07 -4.9488303403e-22 3.9514624935e-22
          1.3180805111e-07 1.4884624771e-21 1.2196966948e-21 1.3180805111e-07 1.4250113894e-21 -7.9427977646e-22
          1.3180805111e-07 -1.3646314686e-21 1.2745366986e-21 1.3180805111e-07 -1.1859604563e-21 -8.8268211601e-22
          1.2911241771e-07 9.2069435494e-22 8.9547600609e-22 1.2911241771e-07 7.1685159088e-22 -7.8769644301e-22
          1.2911241771e-07 -6.8689796153e-23 1.3506543707e-21 1.2911241771e-07 -4.8837461451e-23 -5.494684266e-22
          1.2645263027e-07 2.9886254851e-22 -5.8182592862e-22 1.2645263027e-07 3.2732596699e-22 1.2119085277e-21
          1.2645263027e-07 1.591571637e-21 -8.4133161324e-22 1.2645263027e-07 1.5647540519e-21 1.4288588759e-21
          1.2382862234e-07 -4.9856910337e-22 -1.0660701285e-21 1.2382862234e-07 -5.7265902513e-22 1.4243623755e-21
          1.2382862234e-07 8.4020748815e-22 -1.2371734736e-21 1.2382862234e-07 1.1167148405e-21 1.7452913975e-21
          1.2124031735e-07 -1.0848790467e-21 -4.7335075452e-22 1.2124031735e-07 -1.0680978789e-21 8.5621233641e-22
          1.2124031735e-07 6.5971673972e-22 -1.5242173257e-22 1.2124031735e-07 6.6585907345e-22 4.1002697252e-22
          1.1868762864e-07 7.3788713343e-23 3.1314085485e-22 1.1868762864e-07 1.5626921901e-22 1.6781167835e-23
          1.1868762864e-07 -7.6472634434e-22 3.0085618739e-22 1.1868762864e-07 -9.2436793863e-22 6.262817097e-23
          1.1617045951e-07 -1.4389135734e-22 4.6746303209e-22 1.1617045951e-07 -1.4246602384e-22 -4.0033836075e-22
          1.1617045951e-07 -8.8994857483e-22 4.6746303209e-22 1.1617045951e-07 -1.0831525048e-21 -4.0033836075e-22
          1.1368870328e-07 8.2818991765e-22 6.3995759922e-22 1.1368870328e-07 1.0535308498e-21 -1.0686661842e-21
          1.1368870328e-07 -5.5665417687e-22 5.4826359295e-22 1.1368870328e-07 -7.2550927176e-22 -7.264594941e-22
          1.1124224334e-07 2.0067100124e-21 1.3812978165e-21 1.1124224334e-07 1.6071945683e-21 -1.5562020509e-21
          1.1124224334e-07 -1.8358271672e-21 1.3600201483e-21 1.1124224334e-07 -1.5805974831e-21 -1.4767927121e-21
          1.0883095321e-07 2.3261671037e-21 2.1004783661e-21 1.0883095321e-07 2.4117187763e-21 -2.7461372993e-21
          1.0883095321e-07 -2.2631911273e-21 1.9752220242e-21 1.0883095321e-07 -2.2464099594e-21 -2.8713936413e-21
          1.064546966e-07 7.4463188399e-22 1.1003280752e-21 1.064546966e-07 7.1167196514e-22 -8.8337772704e-22
          1.064546966e-07 -1.2691831701e-21 1.2255844172e-21 1.064546966e-07 -1.1858797478e-21 -1.1920220815e-21
          1.0411332753e-07 1.8113976236e-22 6.262817097e-22 1.0411332753e-07 4.3554652979e-22 -3.6677602508e-22
          1.0411332753e-07 -7.2472046653e-22 3.7576902582e-22 1.0411332753e-07 -9.2264139672e-22 -2.4569334931e-23
          1.0180669032e-07 -8.9452578375e-22 -8.5032461398e-22 1.0180669032e-07 -9.7618337274e-22 1.3461578703e-21
          1.0180669032e-07 6.7792324106e-22 -7.3406127278e-22 1.0180669032e-07 6.7567499087e-22 1.6637952256e-21
          9.9534619749e-08 2.0743474277e-24 9.4132300922e-22 9.9534619749e-08 -8.0406158244e-23 -4.5777442032e-22
          9.9534619749e-08 -3.1578350765e-22 7.0309499281e-22 9.9534619749e-08 -1.8520774866e-22 -2.5960556987e-24
          9.7296941119e-08 1.7505642174e-21 1.0363086822e-21 9.7296941119e-08 1.7620259682e-21 -7.3614810586e-22
          9.7296941119e-08 -3.2192584139e-22 6.7282432387e-22 9.7296941119e-08 -2.8529233885e-22 -4.0622608318e-22
          9.5093470324e-08 1.5360360221e-21 1.1570685238e-21 9.5093470324e-08 1.6643635309e-21 -1.6020989967e-22
          9.5093470324e-08 2.959186873e-22 1.1235061881e-21 9.5093470324e-08 3.3944252631e-23 -1.9377223534e-22
          9.2924013969e-08 7.8717473474e-22 5.5136887127e-22 9.2924013969e-08 9.0127053431e-22 1.3489501108e-23
          9.2924013969e-08 3.899882494e-22 9.3942256455e-22 9.2924013969e-08 3.4915945491e-22 -2.4930785024e-22
          9.0788369457e-08 1.3067373536e-21 4.2231163998e-22 9.0788369457e-08 1.1940668876e-21 6.5395632295e-22
          9.0788369457e-08 1.1916788461e-21 2.5120829491e-22 9.0788369457e-08 1.122607133e-21 5.4098464847e-22
          8.8686325101e-08 1.9150035205e-21 1.0072428469e-21 8.8686325101e-08 1.7805336779e-21 -5.1140959056e-22
          8.8686325101e-08 2.2007390679e-23 1.0408051826e-21 8.8686325101e-08 1.587254834e-22 -4.7784725489e-22
          8.6617660221e-08 9.2313980644e-22 5.6954126116e-22 8.6617660221e-08 1.0007123534e-21 -1.795871232e-22
          8.6617660221e-08 1.0954645927e-22 4.7784725489e-22 8.6617660221e-08 1.3245702696e-23 3.8008893414e-24
          8.4582145265e-08 1.0533041071e-21 4.887407003e-22 8.4582145265e-08 1.0162591462e-21 -8.2195438971e-22
          8.4582145265e-08 -1.5711543425e-22 6.7212871284e-22 8.4582145265e-08 -2.6098385805e-22 -7.5482971837e-22
          8.2579541918e-08 3.5275857287e-22 8.5551672538e-23 8.2579541918e-08 9.9887388879e-23 1.6496101134e-22
          8.2579541918e-08 4.0493886822e-22 -1.0233284037e-22 8.2579541918e-08 4.4505499597e-22 1.3589517604e-22
          8.0609603218e-08 9.6381465121e-23 -1.9437465216e-22 8.0609603218e-08 1.3383788434e-22 5.2075039681e-22
          8.0609603218e-08 6.0489379157e-22 -2.3407932156e-22 8.0609603218e-08 6.5973379544e-22 4.5197989211e-22
          7.8672073683e-08 5.074223128e-22 -2.2084443176e-22 7.8672073683e-08 4.5093647556e-22 2.482644337e-22
          7.8672073683e-08 7.928419573e-22 -2.8961493646e-22 7.8672073683e-08 7.6684728887e-22 4.255101125e-22
          7.6766689432e-08 7.1362357698e-22 -1.1591553569e-22 7.6766689432e-08 7.2006711912e-22 -2.2575696054e-23
          7.6766689432e-08 8.2404579286e-22 -1.3883903726e-22 7.6766689432e-08 1.0169485144e-21 6.2975976484e-23
          7.4893178312e-08 7.4106687747e-22 -1.8139437366e-22 7.4893178312e-08 9.1258168089e-22 5.0691309019e-23
          7.4893178312e-08 1.0445827734e-21 2.9413640814e-23 7.4893178312e-08 9.1779084801e-22 -1.4333553762e-22
          7.305126003e-08 1.3808676297e-21 2.5415215612e-22 7.305126003e-08 1.3835273382e-21 -5.2239623017e-22
          7.305126003e-08 6.4577999606e-22 1.8987815179e-22 7.305126003e-08 4.770351511e-22 -5.2075039681e-22
          7.1240646285e-08 1.6491815994e-21 6.683278235e-22 7.1240646285e-08 1.4532077109e-21 -7.4064460623e-22
          7.1240646285e-08 1.5997691415e-22 6.5154665566e-22 7.1240646285e-08 2.9864204865e-22 -8.3683511287e-22
          6.9461040902e-08 1.5098037981e-21 9.1269817364e-22 6.9461040902e-08 1.5816454697e-21 -7.9713044347e-22
          6.9461040902e-08 -1.4353898176e-22 9.7532634461e-22 6.9461040902e-08 -1.7874715079e-22 -6.5509293369e-22
          6.7712139971e-08 1.1412608768e-21 5.5500834351e-22 6.7712139971e-08 1.1699152538e-21 -3.5908105219e-22
          6.7712139971e-08 -1.4286666929e-22 6.0699768037e-22 6.7712139971e-08 -1.9024925585e-22 -4.7369856003e-22
          6.5993631986e-08 6.051546457e-22 8.7229789321e-22 6.5993631986e-08 5.2338680678e-22 -5.6694520546e-22
          6.5993631986e-08 -5.8900543607e-22 8.7229789321e-22 6.5993631986e-08 -5.8020339381e-22 -5.6694520546e-22
          6.4305197988e-08 3.3319039086e-22 3.4964705173e-22 6.4305197988e-08 3.54578309e-22 5.1581289672e-22
          6.4305197988e-08 3.0768788932e-22 2.931612145e-22 6.4305197988e-08 2.2786709217e-22 5.0967056299e-22
          6.2646511703e-08 4.1813340375e-22 7.2731652223e-22 6.2646511703e-08 3.9520990218e-22 9.4892478791e-23
          6.2646511703e-08 -3.0300210323e-23 8.296493626e-22 6.2646511703e-08 -1.8838459539e-23 9.3408062528e-24
          6.1017239696e-08 3.4914864201e-22 2.4601618351e-22 6.1017239696e-08 3.6214597623e-22 1.3489501108e-23
          6.1017239696e-08 1.6257921268e-22 1.8788451291e-22 6.1017239696e-08 5.9834913963e-23 7.1621171709e-23
          5.9417041506e-08 5.424162248e-22 5.0327361795e-22 5.9417041506e-08 5.6185710116e-22 -1.6271276116e-22
          5.9417041506e-08 -1.9400522085e-23 4.3000661287e-22 5.9417041506e-08 1.9873960492e-24 -1.8563626273e-22
          5.7845569804e-08 2.7553383143e-22 -2.6599582387e-22 5.7845569804e-08 1.9264186742e-22 3.6313655284e-22
          5.7845569804e-08 4.8121338734e-22 -1.8044415133e-22 5.7845569804e-08 4.888913045e-22 4.1962239008e-22
          5.6302470533e-08 4.9278538805e-22 4.2031800111e-22 5.6302470533e-08 4.9012567952e-22 -1.9725029048e-23
          5.6302470533e-08 1.473972811e-22 5.0586967364e-22 5.6302470533e-08 1.427905308e-22 -1.2205786942e-22
          5.4787383063e-08 9.208682577e-22 8.771421991e-22 5.4787383063e-08 9.0828238182e-22 -2.2603654316e-22
          5.4787383063e-08 -8.9492353189e-23 8.877810332e-22 5.4787383063e-08 -3.720180791e-23 -1.2820020315e-22
          5.3299940337e-08 9.0163311051e-22 5.3528331446e-22 5.3299940337e-08 8.9841133944e-22 5.6740448545e-23
          5.3299940337e-08 7.6387054076e-23 6.2697732073e-22 5.3299940337e-08 1.1818936946e-22 1.089344541e-23
          5.1839769023e-08 9.2774655674e-22 7.5673016304e-22 5.1839769023e-08 9.0789422204e-22 -3.1902857728e-22
          5.1839769023e-08 8.1825248919e-23 6.7732082423e-22 5.1839769023e-08 8.1825248919e-23 -3.9843791608e-22
          5.0406489666e-08 9.4848546095e-22 6.4021221053e-22 5.0406489666e-08 9.9392100574e-22 -2.4316551651e-22
          5.0406489666e-08 -1.088059239e-22 6.1114637523e-22 5.0406489666e-08 -1.2026767468e-22 -5.5281003595e-23
          4.8999716837e-08 8.913071341e-22 8.2420263989e-22 4.8999716837e-08 9.0773196855e-22 -2.7897610236e-22
          4.8999716837e-08 -7.603155708e-23 8.3034497363e-22 4.8999716837e-08 -1.3998958231e-22 -2.2249026512e-22
          4.7619059283e-08 6.4405969698e-22 5.759382062e-22 4.7619059283e-08 6.572076354e-22 -1.453291765e-22
          4.7619059283e-08 3.1418092587e-23 5.1331003523e-22 4.7619059283e-08 9.3484201011e-23 -1.2854800867e-22
          4.6264120081e-08 1.53986021e-22 2.6634362938e-22 4.6264120081e-08 1.5209410419e-22 3.0440246542e-22
          4.6264120081e-08 1.595515215e-22 3.5803763565e-22 4.6264120081e-08 1.2690758175e-22 1.2101445288e-22
          4.4934496785e-08 3.3779401975e-22 2.246919182e-22 4.4934496785e-08 3.0320303822e-22 6.9186533111e-24
          4.4934496785e-08 -3.3011922399e-23 1.6124083055e-22 4.4934496785e-08 1.2067289019e-23 1.613215391e-23
          4.362978158e-08 -1.3829715185e-22 -5.4886600977e-23 4.362978158e-08 -5.7708562984e-23 4.2126822344e-23
          4.362978158e-08 1.8021824502e-22 -8.0881269411e-23 4.362978158e-08 1.1891992831e-22 9.9435576263e-23
          4.2349561425e-08 -2.2188160547e-22 -1.0090750687e-22 4.2349561425e-08 -1.651349141e-22 1.0315575705e-22
          4.2349561425e-08 5.6422184411e-23 -1.2607925862e-22 4.2349561425e-08 -2.9691550673e-23 8.8622839404e-23
          4.1093418209e-08 -6.4088452301e-23 -7.716108862e-23 4.1093418209e-08 -2.5151574615e-23 1.6271276116e-22
          4.1093418209e-08 6.1223014605e-23 -5.4237587053e-23 4.1093418209e-08 7.6674328177e-23 1.5657042743e-22
          3.9860928892e-08 1.0889516031e-22 8.4728755856e-23 3.9860928892e-08 9.3800180112e-23 2.5994668434e-23
          3.9860928892e-08 1.8912741579e-22 5.3194170511e-24 3.9860928892e-08 1.6871301855e-22 -5.3414670371e-23
          3.8651665657e-08 2.8067934572e-22 -1.320476896e-22 3.8651665657e-08 1.9568973573e-22 4.8269156077e-23
          3.8651665657e-08 2.3985055123e-22 -4.1176600009e-23 3.8651665657e-08 3.6915158092e-22 8.4902658613e-23
          3.7465196051e-08 1.5087990631e-22 -3.3435030016e-23 3.7465196051e-08 1.5338901063e-22 2.3325640488e-22
          3.7465196051e-08 3.5535462857e-22 -7.9282033151e-23 3.7465196051e-08 3.8569519317e-22 2.1647523704e-22
          3.6301083131e-08 -3.5263293998e-23 -1.5514509392e-22 3.6301083131e-08 -3.4289773111e-23 4.1015427817e-22
          3.6301083131e-08 5.8048983153e-22 -2.0099209706e-22 3.6301083131e-08 5.2722576537e-22 4.3307777974e-22
          3.5158885609e-08 -7.421182096e-23 1.3424934268e-22 3.5158885609e-08 -1.2913504253e-23 3.3156785605e-22
          3.5158885609e-08 3.1764047663e-22 1.4878226033e-22 3.5158885609e-08 3.2106797688e-22 3.567396078e-22
          3.4038157988e-08 -1.9279559303e-22 -9.6712214911e-23 3.4038157988e-08 -1.9622309328e-22 5.2814416129e-22
          3.4038157988e-08 2.9135312765e-22 -7.0717546477e-23 3.4038157988e-08 3.041447327e-22 5.7931058147e-22
          3.2938450707e-08 1.23103571e-22 1.5250244112e-22 3.2938450707e-08 1.1947034158e-22 2.3572515492e-23
          3.2938450707e-08 9.1337672895e-23 1.242595225e-22 3.2938450707e-08 9.7630610833e-23 4.9567183926e-23
          3.1859310274e-08 -7.8934227637e-23 -8.2005394504e-23 3.1859310274e-08 -6.9008060287e-23 8.0707366654e-23
          3.1859310274e-08 7.6512074696e-23 -5.0691309019e-23 3.1859310274e-08 3.9467113819e-23 1.1202145214e-22
          3.0800279408e-08 -4.7901173425e-23 -6.5050323912e-23 3.0800279408e-08 -1.1534182387e-22 4.8744267245e-23
          3.0800279408e-08 -7.5787758668e-23 -2.0176841664e-22 3.0800279408e-08 -8.872996792e-23 7.4738935679e-23
          2.9760897164e-08 -6.8845806806e-23 -5.0042295094e-23 2.9760897164e-08 3.6763929604e-23 -1.0570521565e-22
          2.9760897164e-08 4.2906263337e-23 -3.858054431e-23 2.9760897164e-08 3.4460554454e-23 -2.9367043711e-23
          2.8740699075e-08 2.7031842148e-24 -1.4445966272e-22 2.8740699075e-08 -1.076639067e-22 3.196309941e-23
          2.8740699075e-08 7.7862106096e-23 -1.1846499428e-22 2.8740699075e-08 1.239148384e-22 -6.5050323912e-23
          2.7739217275e-08 3.8219239083e-22 1.452825794e-22 2.7739217275e-08 3.8659341196e-22 -2.6876578232e-22
          2.7739217275e-08 -5.9481702001e-23 9.6364409397e-23 2.7739217275e-08 -6.3320660584e-23 -2.7408519937e-22
          2.6755980631e-08 1.3782204068e-22 1.1963571648e-22 2.6755980631e-08 1.3209116529e-22 -4.7794044909e-23
          2.6755980631e-08 -9.5869121092e-23 1.7080213666e-22 2.6755980631e-08 -7.1821494432e-23 -5.0865211776e-23
          2.5790514866e-08 1.7472066128e-22 1.6271276116e-22 2.5790514866e-08 2.0183945481e-22 -1.1461750784e-22
          2.5790514866e-08 -1.4034705821e-22 1.8563626273e-22 2.5790514866e-08 -1.7739201908e-22 -1.6046451097e-22
          2.4842342684e-08 1.3918372136e-22 1.2655436979e-22 2.4842342684e-08 1.5588958709e-22 -3.3910141184e-23
          2.4842342684e-08 -1.9464174912e-23 1.2041203606e-22 2.4842342684e-08 -8.3141168872e-23 -1.0986639616e-23
          2.3910983891e-08 7.9652719027e-23 3.356233567e-23 2.3910983891e-08 6.6065759781e-23 1.5657042743e-22
          2.3910983891e-08 1.0687437714e-22 3.356233567e-23 2.3910983891e-08 1.2913295157e-22 1.1686575802e-22
          2.2995955513e-08 -8.4801354735e-23 -9.0569881178e-23 2.2995955513e-08 -9.9793470346e-23 2.2953622409e-22
          2.2995955513e-08 2.5372436638e-22 -9.3641048045e-23 2.2995955513e-08 2.7759382636e-22 2.4099797487e-22
          2.2096771914e-08 1.2887084287e-23 -1.7777987274e-23 2.2096771914e-08 -6.1974586978e-24 2.2906111292e-22
          2.2096771914e-08 2.3672738081e-22 -3.7630321975e-23 2.2096771914e-08 2.3519179738e-22 1.5497119117e-22
          2.1212944909e-08 -8.8565011215e-23 -1.1050916726e-22 2.1212944909e-08 -4.7502925067e-23 1.8903193655e-22
          2.1212944909e-08 2.6119655438e-22 -9.6387707949e-23 2.1212944909e-08 2.2537858318e-22 1.9588693704e-22
          2.0343983875e-08 -5.1086854153e-23 -1.4286042646e-22 2.0343983875e-08 -6.303536538e-23 1.9709801351e-22
          2.0343983875e-08 3.1187038948e-22 -1.8563626273e-22 2.0343983875e-08 2.9956554488e-22 2.0855976429e-22
          1.9489395864e-08 2.1716460524e-22 -6.3688643236e-23 1.9489395864e-08 2.0368051058e-22 -9.6428062224e-23
          1.9489395864e-08 1.3264157856e-22 -5.6422184411e-23 1.9489395864e-08 1.7303873757e-22 -6.3989851646e-23
          1.8648685704e-08 9.3827742594e-23 -1.426865237e-22 1.8648685704e-08 1.3547945377e-22 -5.7134851162e-23
          1.8648685704e-08 2.2187422013e-22 -1.8546235997e-22 1.8648685704e-08 1.6037017425e-22 -5.9684309758e-24
          1.782135611e-08 8.3020830373e-23 -2.6469779602e-23 1.782135611e-08 7.201827755e-23 -3.066507156e-23
          1.782135611e-08 1.0801441544e-22 -6.9245615871e-23 1.782135611e-08 1.2692079173e-22 -3.9055655478e-23
          1.7006907782e-08 1.3105243087e-22 3.8667495689e-23 1.7006907782e-08 1.4499572349e-22 -2.2715487364e-24
          1.7006907782e-08 3.8563070396e-23 8.2978915391e-23 1.7006907782e-08 -4.8776930038e-24 -1.9464174912e-23
          1.6204839505e-08 2.6697090546e-22 3.0418820839e-22 1.6204839505e-08 2.2276235034e-22 -1.5836686499e-22