<?xml version="1.0"?>
<VTKFile type="UnstructuredGrid" version="0.1" byte_order="LittleEndian" header_type="UInt32">
  <UnstructuredGrid>
    <FieldData>
      <DataArray type="Int8" Name="OGS_VERSION" NumberOfTuples="40" format="ascii" RangeMin="45" RangeMax="121">
        54 46 50 46 48 45
        49 53 45 103 53 51
        56 49 101 101 99 99
        100 46 100 105 114 116
        121 46 50 48 49 57
        48 52 48 49 49 53
        48 52 49 50
      </DataArray>
    </FieldData>
    <Piece NumberOfPoints="804" NumberOfCells="200">
      <PointData>
        <DataArray type="Float64" Name="temperature" format="ascii" RangeMin="0.037190134433" RangeMax="0.5">
          0.487525675 0.5 0.5 0.487525675 0.487525675 0.5
          0.5 0.487525675 0.47529823698 0.47529823698 0.47529823698 0.47529823698
          0.4633145738 0.4633145738 0.4633145738 0.4633145738 0.45157157509 0.45157157509
          0.45157157509 0.45157157509 0.44006613314 0.44006613314 0.44006613314 0.44006613314
          0.42879514379 0.42879514379 0.42879514379 0.42879514379 0.4177555073 0.4177555073
          0.4177555073 0.4177555073 0.40694412923 0.40694412923 0.40694412923 0.40694412923
          0.39635792131 0.39635792131 0.39635792131 0.39635792131 0.38599380234 0.38599380234
          0.38599380234 0.38599380234 0.37584869903 0.37584869903 0.37584869903 0.37584869903
          0.36591954689 0.36591954689 0.36591954689 0.36591954689 0.35620329106 0.35620329106
          0.35620329106 0.35620329106 0.3466968872 0.3466968872 0.3466968872 0.3466968872
          0.33739730231 0.33739730231 0.33739730231 0.33739730231 0.32830151559 0.32830151559
          0.32830151559 0.32830151559 0.31940651928 0.31940651928 0.31940651928 0.31940651928
          0.31070931947 0.31070931947 0.31070931947 0.31070931947 0.30220693696 0.30220693696
          0.30220693696 0.30220693696 0.29389640802 0.29389640802 0.29389640802 0.29389640802
          0.28577478526 0.28577478526 0.28577478526 0.28577478526 0.27783913838 0.27783913838
          0.27783913838 0.27783913838 0.270086555 0.270086555 0.270086555 0.270086555
          0.26251414139 0.26251414139 0.26251414139 0.26251414139 0.25511902329 0.25511902329
          0.25511902329 0.25511902329 0.24789834667 0.24789834667 0.24789834667 0.24789834667
          0.24084927844 0.24084927844 0.24084927844 0.24084927844 0.23396900722 0.23396900722
          0.23396900722 0.23396900722 0.22725474409 0.22725474409 0.22725474409 0.22725474409
          0.22070372328 0.22070372328 0.22070372328 0.22070372328 0.21431320287 0.21431320287
          0.21431320287 0.21431320287 0.20808046552 0.20808046552 0.20808046552 0.20808046552
          0.20200281916 0.20200281916 0.20200281916 0.20200281916 0.19607759761 0.19607759761
          0.19607759761 0.19607759761 0.1903021613 0.1903021613 0.1903021613 0.1903021613
          0.18467389788 0.18467389788 0.18467389788 0.18467389788 0.17919022297 0.17919022297
          0.17919022297 0.17919022297 0.17384858057 0.17384858057 0.17384858057 0.17384858057
          0.16864644387 0.16864644387 0.16864644387 0.16864644387 0.16358131572 0.16358131572
          0.16358131572 0.16358131572 0.15865072933 0.15865072933 0.15865072933 0.15865072933
          0.15385224875 0.15385224875 0.15385224875 0.15385224875 0.14918346947 0.14918346947
          0.14918346947 0.14918346947 0.14464201899 0.14464201899 0.14464201899 0.14464201899
          0.14022555732 0.14022555732 0.14022555732 0.14022555732 0.13593177752 0.13593177752
          0.13593177752 0.13593177752 0.1317584062 0.1317584062 0.1317584062 0.1317584062
          0.12770320402 0.12770320402 0.12770320402 0.12770320402 0.1237639662 0.1237639662
          0.1237639662 0.1237639662 0.11993852293 0.11993852293 0.11993852293 0.11993852293
          0.1162247399 0.1162247399 0.1162247399 0.1162247399 0.11262051868 0.11262051868
          0.11262051868 0.11262051868 0.10912379719 0.10912379719 0.10912379719 0.10912379719
          0.10573255013 0.10573255013 0.10573255013 0.10573255013 0.10244478933 0.10244478933
          0.10244478933 0.10244478933 0.09925856422 0.09925856422 0.09925856422 0.09925856422
          0.096171962139 0.096171962139 0.096171962139 0.096171962139 0.093183108758 0.093183108758
          0.093183108758 0.093183108758 0.090290168413 0.090290168413 0.090290168413 0.090290168413
          0.087491344452 0.087491344452 0.087491344452 0.087491344452 0.084784879575 0.084784879575
          0.084784879575 0.084784879575 0.082169056149 0.082169056149 0.082169056149 0.082169056149
          0.079642196525 0.079642196525 0.079642196525 0.079642196525 0.077202663331 0.077202663331
          0.077202663331 0.077202663331 0.074848859764 0.074848859764 0.074848859764 0.074848859764
          0.072579229863 0.072579229863 0.072579229863 0.072579229863 0.070392258781 0.070392258781
          0.070392258781 0.070392258781 0.068286473035 0.068286473035 0.068286473035 0.068286473035
          0.066260440753 0.066260440753 0.066260440753 0.066260440753 0.064312771912 0.064312771912
          0.064312771912 0.064312771912 0.062442118557 0.062442118557 0.062442118557 0.062442118557
          0.060647175023 0.060647175023 0.060647175023 0.060647175023 0.058926678136 0.058926678136
          0.058926678136 0.058926678136 0.057279407411 0.057279407411 0.057279407411 0.057279407411
          0.05570418524 0.05570418524 0.05570418524 0.05570418524 0.054199877069 0.054199877069
          0.054199877069 0.054199877069 0.05276539157 0.05276539157 0.05276539157 0.05276539157
          0.051399680799 0.051399680799 0.051399680799 0.051399680799 0.050101740349 0.050101740349
          0.050101740349 0.050101740349 0.048870609499 0.048870609499 0.048870609499 0.048870609499
          0.047705371345 0.047705371345 0.047705371345 0.047705371345 0.046605152933 0.046605152933
          0.046605152933 0.046605152933 0.045569125378 0.045569125378 0.045569125378 0.045569125378
          0.04459650398 0.04459650398 0.04459650398 0.04459650398 0.043686548328 0.043686548328
          0.043686548328 0.043686548328 0.042838562405 0.042838562405 0.042838562405 0.042838562405
          0.042051894673 0.042051894673 0.042051894673 0.042051894673 0.041325938167 0.041325938167
          0.041325938167 0.041325938167 0.040660130569 0.040660130569 0.040660130569 0.040660130569
          0.040053954285 0.040053954285 0.040053954285 0.040053954285 0.039506936507 0.039506936507
          0.039506936507 0.039506936507 0.039018649281 0.039018649281 0.039018649281 0.039018649281
          0.038588709552 0.038588709552 0.038588709552 0.038588709552 0.03821677922 0.03821677922
          0.03821677922 0.03821677922 0.03790256518 0.03790256518 0.03790256518 0.03790256518
          0.037645819357 0.037645819357 0.037645819357 0.037645819357 0.03744633874 0.03744633874
          0.03744633874 0.03744633874 0.037303965405 0.037303965405 0.037303965405 0.037303965405
          0.037218586876 0.037218586876 0.037218586876 0.037218586876 0.037190134433 0.037190134433
          0.037190134433 0.037190134433 0.037218586534 0.037218586534 0.037218586534 0.037218586534
          0.037303965177 0.037303965177 0.037303965177 0.037303965177 0.03744633874 0.03744633874
          0.03744633874 0.03744633874 0.037645819357 0.037645819357 0.037645819357 0.037645819357
          0.03790256518 0.03790256518 0.03790256518 0.03790256518 0.03821677922 0.03821677922
          0.03821677922 0.03821677922 0.038588709552 0.038588709552 0.038588709552 0.038588709552
          0.039018649281 0.039018649281 0.039018649281 0.039018649281 0.039506936507 0.039506936507
          0.039506936507 0.039506936507 0.040053954284 0.040053954284 0.040053954284 0.040053954284
          0.040660130569 0.040660130569 0.040660130569 0.040660130569 0.041325938167 0.041325938167
          0.041325938167 0.041325938167 0.042051894673 0.042051894673 0.042051894673 0.042051894673
          0.042838562405 0.042838562405 0.042838562405 0.042838562405 0.043686548328 0.043686548328
          0.043686548328 0.043686548328 0.04459650398 0.04459650398 0.04459650398 0.04459650398
          0.045569125378 0.045569125378 0.045569125378 0.045569125378 0.046605152933 0.046605152933
          0.046605152933 0.046605152933 0.047705371345 0.047705371345 0.047705371345 0.047705371345
          0.048870609499 0.048870609499 0.048870609499 0.048870609499 0.050101740349 0.050101740349
          0.050101740349 0.050101740349 0.051399680799 0.051399680799 0.051399680799 0.051399680799
          0.05276539157 0.05276539157 0.05276539157 0.05276539157 0.054199877069 0.054199877069
          0.054199877069 0.054199877069 0.05570418524 0.05570418524 0.05570418524 0.05570418524
          0.057279407411 0.057279407411 0.057279407411 0.057279407411 0.058926678136 0.058926678136
          0.058926678136 0.058926678136 0.060647175023 0.060647175023 0.060647175023 0.060647175023
          0.062442118557 0.062442118557 0.062442118557 0.062442118557 0.064312771912 0.064312771912
          0.064312771912 0.064312771912 0.066260440753 0.066260440753 0.066260440753 0.066260440753
          0.068286473035 0.068286473035 0.068286473035 0.068286473035 0.070392258781 0.070392258781
          0.070392258781 0.070392258781 0.072579229863 0.072579229863 0.072579229863 0.072579229863
          0.074848859764 0.074848859764 0.074848859764 0.074848859764 0.077202663331 0.077202663331
          0.077202663331 0.077202663331 0.079642196525 0.079642196525 0.079642196525 0.079642196525
          0.082169056149 0.082169056149 0.082169056149 0.082169056149 0.084784879575 0.084784879575
          0.084784879575 0.084784879575 0.087491344452 0.087491344452 0.087491344452 0.087491344452
          0.090290168413 0.090290168413 0.090290168413 0.090290168413 0.093183108758 0.093183108758
          0.093183108758 0.093183108758 0.096171962139 0.096171962139 0.096171962139 0.096171962139
          0.09925856422 0.09925856422 0.09925856422 0.09925856422 0.10244478933 0.10244478933
          0.10244478933 0.10244478933 0.10573255013 0.10573255013 0.10573255013 0.10573255013
          0.10912379719 0.10912379719 0.10912379719 0.10912379719 0.11262051868 0.11262051868
          0.11262051868 0.11262051868 0.1162247399 0.1162247399 0.1162247399 0.1162247399
          0.11993852293 0.11993852293 0.11993852293 0.11993852293 0.1237639662 0.1237639662
          0.1237639662 0.1237639662 0.12770320402 0.12770320402 0.12770320402 0.12770320402
          0.1317584062 0.1317584062 0.1317584062 0.1317584062 0.13593177752 0.13593177752
          0.13593177752 0.13593177752 0.14022555732 0.14022555732 0.14022555732 0.14022555732
          0.14464201899 0.14464201899 0.14464201899 0.14464201899 0.14918346947 0.14918346947
          0.14918346947 0.14918346947 0.15385224875 0.15385224875 0.15385224875 0.15385224875
          0.15865072933 0.15865072933 0.15865072933 0.15865072933 0.16358131572 0.16358131572
          0.16358131572 0.16358131572 0.16864644387 0.16864644387 0.16864644387 0.16864644387
          0.17384858057 0.17384858057 0.17384858057 0.17384858057 0.17919022297 0.17919022297
          0.17919022297 0.17919022297 0.18467389788 0.18467389788 0.18467389788 0.18467389788
          0.1903021613 0.1903021613 0.1903021613 0.1903021613 0.19607759761 0.19607759761
          0.19607759761 0.19607759761 0.20200281916 0.20200281916 0.20200281916 0.20200281916
          0.20808046552 0.20808046552 0.20808046552 0.20808046552 0.21431320287 0.21431320287
          0.21431320287 0.21431320287 0.22070372328 0.22070372328 0.22070372328 0.22070372328
          0.22725474409 0.22725474409 0.22725474409 0.22725474409 0.23396900722 0.23396900722
          0.23396900722 0.23396900722 0.24084927844 0.24084927844 0.24084927844 0.24084927844
          0.24789834667 0.24789834667 0.24789834667 0.24789834667 0.25511902329 0.25511902329
          0.25511902329 0.25511902329 0.26251414139 0.26251414139 0.26251414139 0.26251414139
          0.270086555 0.270086555 0.270086555 0.270086555 0.27783913838 0.27783913838
          0.27783913838 0.27783913838 0.28577478526 0.28577478526 0.28577478526 0.28577478526
          0.29389640802 0.29389640802 0.29389640802 0.29389640802 0.30220693696 0.30220693696
          0.30220693696 0.30220693696 0.31070931947 0.31070931947 0.31070931947 0.31070931947
          0.31940651928 0.31940651928 0.31940651928 0.31940651928 0.32830151559 0.32830151559
          0.32830151559 0.32830151559 0.33739730231 0.33739730231 0.33739730231 0.33739730231
          0.3466968872 0.3466968872 0.3466968872 0.3466968872 0.35620329106 0.35620329106
          0.35620329106 0.35620329106 0.36591954689 0.36591954689 0.36591954689 0.36591954689
          0.37584869903 0.37584869903 0.37584869903 0.37584869903 0.38599380234 0.38599380234
          0.38599380234 0.38599380234 0.39635792131 0.39635792131 0.39635792131 0.39635792131
          0.40694412923 0.40694412923 0.40694412923 0.40694412923 0.4177555073 0.4177555073
          0.4177555073 0.4177555073 0.42879514379 0.42879514379 0.42879514379 0.42879514379
          0.44006613314 0.44006613314 0.44006613314 0.44006613314 0.45157157509 0.45157157509
          0.45157157509 0.45157157509 0.4633145738 0.4633145738 0.4633145738 0.4633145738
          0.47529823698 0.47529823698 0.47529823698 0.47529823698 0.487525675 0.487525675
          0.487525675 0.487525675 0.5 0.5 0.5 0.5
        </DataArray>
      </PointData>
      <CellData>
        <DataArray type="Int32" Name="MaterialIDs" format="ascii" RangeMin="0" RangeMax="0">
          0 0 0 0 0 0
          0 0 0 0 0 0
          0 0 0 0 0 0
          0 0 0 0 0 0
          0 0 0 0 0 0
          0 0 0 0 0 0
          0 0 0 0 0 0
          0 0 0 0 0 0
          0 0 0 0 0 0
          0 0 0 0 0 0
          0 0 0 0 0 0
          0 0 0 0 0 0
          0 0 0 0 0 0
          0 0 0 0 0 0
          0 0 0 0 0 0
          0 0 0 0 0 0
          0 0 0 0 0 0
          0 0 0 0 0 0
          0 0 0 0 0 0
          0 0 0 0 0 0
          0 0 0 0 0 0
          0 0 0 0 0 0
          0 0 0 0 0 0
          0 0 0 0 0 0
          0 0 0 0 0 0
          0 0 0 0 0 0
          0 0 0 0 0 0
          0 0 0 0 0 0
          0 0 0 0 0 0
          0 0 0 0 0 0
          0 0 0 0 0 0
          0 0 0 0 0 0
          0 0 0 0 0 0
          0 0
        </DataArray>
      </CellData>
      <Points>
        <DataArray type="Float64" Name="Points" NumberOfComponents="3" format="ascii" RangeMin="0" RangeMax="50.179677161">
          -49.5 3 3 -50 3 3
          -50 0 3 -49.5 0 3
          -49.5 3 0 -50 3 0
          -50 0 0 -49.5 0 0
          -49 3 3 -49 0 3
          -49 3 0 -49 0 0
          -48.5 3 3 -48.5 0 3
          -48.5 3 0 -48.5 0 0
          -48 3 3 -48 0 3
          -48 3 0 -48 0 0
          -47.5 3 3 -47.5 0 3
          -47.5 3 0 -47.5 0 0
          -47 3 3 -47 0 3
          -47 3 0 -47 0 0
          -46.5 3 3 -46.5 0 3
          -46.5 3 0 -46.5 0 0
          -46 3 3 -46 0 3
          -46 3 0 -46 0 0
          -45.5 3 3 -45.5 0 3
          -45.5 3 0 -45.5 0 0
          -45 3 3 -45 0 3
          -45 3 0 -45 0 0
          -44.5 3 3 -44.5 0 3
          -44.5 3 0 -44.5 0 0
          -44 3 3 -44 0 3
          -44 3 0 -44 0 0
          -43.5 3 3 -43.5 0 3
          -43.5 3 0 -43.5 0 0
          -43 3 3 -43 0 3
          -43 3 0 -43 0 0
          -42.5 3 3 -42.5 0 3
          -42.5 3 0 -42.5 0 0
          -42 3 3 -42 0 3
          -42 3 0 -42 0 0
          -41.5 3 3 -41.5 0 3
          -41.5 3 0 -41.5 0 0
          -41 3 3 -41 0 3
          -41 3 0 -41 0 0
          -40.5 3 3 -40.5 0 3
          -40.5 3 0 -40.5 0 0
          -40 3 3 -40 0 3
          -40 3 0 -40 0 0
          -39.5 3 3 -39.5 0 3
          -39.5 3 0 -39.5 0 0
          -39 3 3 -39 0 3
          -39 3 0 -39 0 0
          -38.5 3 3 -38.5 0 3
          -38.5 3 0 -38.5 0 0
          -38 3 3 -38 0 3
          -38 3 0 -38 0 0
          -37.5 3 3 -37.5 0 3
          -37.5 3 0 -37.5 0 0
          -37 3 3 -37 0 3
          -37 3 0 -37 0 0
          -36.5 3 3 -36.5 0 3
          -36.5 3 0 -36.5 0 0
          -36 3 3 -36 0 3
          -36 3 0 -36 0 0
          -35.5 3 3 -35.5 0 3
          -35.5 3 0 -35.5 0 0
          -35 3 3 -35 0 3
          -35 3 0 -35 0 0
          -34.5 3 3 -34.5 0 3
          -34.5 3 0 -34.5 0 0
          -34 3 3 -34 0 3
          -34 3 0 -34 0 0
          -33.5 3 3 -33.5 0 3
          -33.5 3 0 -33.5 0 0
          -33 3 3 -33 0 3
          -33 3 0 -33 0 0
          -32.5 3 3 -32.5 0 3
          -32.5 3 0 -32.5 0 0
          -32 3 3 -32 0 3
          -32 3 0 -32 0 0
          -31.5 3 3 -31.5 0 3
          -31.5 3 0 -31.5 0 0
          -31 3 3 -31 0 3
          -31 3 0 -31 0 0
          -30.5 3 3 -30.5 0 3
          -30.5 3 0 -30.5 0 0
          -30 3 3 -30 0 3
          -30 3 0 -30 0 0
          -29.5 3 3 -29.5 0 3
          -29.5 3 0 -29.5 0 0
          -29 3 3 -29 0 3
          -29 3 0 -29 0 0
          -28.5 3 3 -28.5 0 3
          -28.5 3 0 -28.5 0 0
          -28 3 3 -28 0 3
          -28 3 0 -28 0 0
          -27.5 3 3 -27.5 0 3
          -27.5 3 0 -27.5 0 0
          -27 3 3 -27 0 3
          -27 3 0 -27 0 0
          -26.5 3 3 -26.5 0 3
          -26.5 3 0 -26.5 0 0
          -26 3 3 -26 0 3
          -26 3 0 -26 0 0
          -25.5 3 3 -25.5 0 3
          -25.5 3 0 -25.5 0 0
          -25 3 3 -25 0 3
          -25 3 0 -25 0 0
          -24.5 3 3 -24.5 0 3
          -24.5 3 0 -24.5 0 0
          -24 3 3 -24 0 3
          -24 3 0 -24 0 0
          -23.5 3 3 -23.5 0 3
          -23.5 3 0 -23.5 0 0
          -23 3 3 -23 0 3
          -23 3 0 -23 0 0
          -22.5 3 3 -22.5 0 3
          -22.5 3 0 -22.5 0 0
          -22 3 3 -22 0 3
          -22 3 0 -22 0 0
          -21.5 3 3 -21.5 0 3
          -21.5 3 0 -21.5 0 0
          -21 3 3 -21 0 3
          -21 3 0 -21 0 0
          -20.5 3 3 -20.5 0 3
          -20.5 3 0 -20.5 0 0
          -20 3 3 -20 0 3
          -20 3 0 -20 0 0
          -19.5 3 3 -19.5 0 3
          -19.5 3 0 -19.5 0 0
          -19 3 3 -19 0 3
          -19 3 0 -19 0 0
          -18.5 3 3 -18.5 0 3
          -18.5 3 0 -18.5 0 0
          -18 3 3 -18 0 3
          -18 3 0 -18 0 0
          -17.5 3 3 -17.5 0 3
          -17.5 3 0 -17.5 0 0
          -17 3 3 -17 0 3
          -17 3 0 -17 0 0
          -16.5 3 3 -16.5 0 3
          -16.5 3 0 -16.5 0 0
          -16 3 3 -16 0 3
          -16 3 0 -16 0 0
          -15.5 3 3 -15.5 0 3
          -15.5 3 0 -15.5 0 0
          -15 3 3 -15 0 3
          -15 3 0 -15 0 0
          -14.5 3 3 -14.5 0 3
          -14.5 3 0 -14.5 0 0
          -14 3 3 -14 0 3
          -14 3 0 -14 0 0
          -13.5 3 3 -13.5 0 3
          -13.5 3 0 -13.5 0 0
          -13 3 3 -13 0 3
          -13 3 0 -13 0 0
          -12.5 3 3 -12.5 0 3
          -12.5 3 0 -12.5 0 0
          -12 3 3 -12 0 3
          -12 3 0 -12 0 0
          -11.5 3 3 -11.5 0 3
          -11.5 3 0 -11.5 0 0
          -11 3 3 -11 0 3
          -11 3 0 -11 0 0
          -10.5 3 3 -10.5 0 3
          -10.5 3 0 -10.5 0 0
          -10 3 3 -10 0 3
          -10 3 0 -10 0 0
          -9.5 3 3 -9.5 0 3
          -9.5 3 0 -9.5 0 0
          -9 3 3 -9 0 3
          -9 3 0 -9 0 0
          -8.5 3 3 -8.5 0 3
          -8.5 3 0 -8.5 0 0
          -8 3 3 -8 0 3
          -8 3 0 -8 0 0
          -7.5 3 3 -7.5 0 3
          -7.5 3 0 -7.5 0 0
          -7 3 3 -7 0 3
          -7 3 0 -7 0 0
          -6.5 3 3 -6.5 0 3
          -6.5 3 0 -6.5 0 0
          -6 3 3 -6 0 3
          -6 3 0 -6 0 0
          -5.5 3 3 -5.5 0 3
          -5.5 3 0 -5.5 0 0
          -5 3 3 -5 0 3
          -5 3 0 -5 0 0
          -4.5 3 3 -4.5 0 3
          -4.5 3 0 -4.5 0 0
          -4 3 3 -4 0 3
          -4 3 0 -4 0 0
          -3.5 3 3 -3.5 0 3
          -3.5 3 0 -3.5 0 0
          -3 3 3 -3 0 3
          -3 3 0 -3 0 0
          -2.5 3 3 -2.5 0 3
          -2.5 3 0 -2.5 0 0
          -2 3 3 -2 0 3
          -2 3 0 -2 0 0
          -1.5 3 3 -1.5 0 3
          -1.5 3 0 -1.5 0 0
          -1 3 3 -1 0 3
          -1 3 0 -1 0 0
          -0.500003 3 3 -0.500003 0 3
          -0.500003 3 0 -0.500003 0 0
          0 3 3 0 0 3
          0 3 0 0 0 0
          0.5 3 3 0.5 0 3
          0.5 3 0 0.5 0 0
          0.999999 3 3 0.999999 0 3
          0.999999 3 0 0.999999 0 0
          1.5 3 3 1.5 0 3
          1.5 3 0 1.5 0 0
          2 3 3 2 0 3
          2 3 0 2 0 0
          2.5 3 3 2.5 0 3
          2.5 3 0 2.5 0 0
          3 3 3 3 0 3
          3 3 0 3 0 0
          3.5 3 3 3.5 0 3
          3.5 3 0 3.5 0 0
          4 3 3 4 0 3
          4 3 0 4 0 0
          4.5 3 3 4.5 0 3
          4.5 3 0 4.5 0 0
          5 3 3 5 0 3
          5 3 0 5 0 0
          5.5 3 3 5.5 0 3
          5.5 3 0 5.5 0 0
          6 3 3 6 0 3
          6 3 0 6 0 0
          6.5 3 3 6.5 0 3
          6.5 3 0 6.5 0 0
          7 3 3 7 0 3
          7 3 0 7 0 0
          7.5 3 3 7.5 0 3
          7.5 3 0 7.5 0 0
          8 3 3 8 0 3
          8 3 0 8 0 0
          8.5 3 3 8.5 0 3
          8.5 3 0 8.5 0 0
          9 3 3 9 0 3
          9 3 0 9 0 0
          9.5 3 3 9.5 0 3
          9.5 3 0 9.5 0 0
          10 3 3 10 0 3
          10 3 0 10 0 0
          10.5 3 3 10.5 0 3
          10.5 3 0 10.5 0 0
          11 3 3 11 0 3
          11 3 0 11 0 0
          11.5 3 3 11.5 0 3
          11.5 3 0 11.5 0 0
          12 3 3 12 0 3
          12 3 0 12 0 0
          12.5 3 3 12.5 0 3
          12.5 3 0 12.5 0 0
          13 3 3 13 0 3
          13 3 0 13 0 0
          13.5 3 3 13.5 0 3
          13.5 3 0 13.5 0 0
          14 3 3 14 0 3
          14 3 0 14 0 0
          14.5 3 3 14.5 0 3
          14.5 3 0 14.5 0 0
          15 3 3 15 0 3
          15 3 0 15 0 0
          15.5 3 3 15.5 0 3
          15.5 3 0 15.5 0 0
          16 3 3 16 0 3
          16 3 0 16 0 0
          16.5 3 3 16.5 0 3
          16.5 3 0 16.5 0 0
          17 3 3 17 0 3
          17 3 0 17 0 0
          17.5 3 3 17.5 0 3
          17.5 3 0 17.5 0 0
          18 3 3 18 0 3
          18 3 0 18 0 0
          18.5 3 3 18.5 0 3
          18.5 3 0 18.5 0 0
          19 3 3 19 0 3
          19 3 0 19 0 0
          19.5 3 3 19.5 0 3
          19.5 3 0 19.5 0 0
          20 3 3 20 0 3
          20 3 0 20 0 0
          20.5 3 3 20.5 0 3
          20.5 3 0 20.5 0 0
          21 3 3 21 0 3
          21 3 0 21 0 0
          21.5 3 3 21.5 0 3
          21.5 3 0 21.5 0 0
          22 3 3 22 0 3
          22 3 0 22 0 0
          22.5 3 3 22.5 0 3
          22.5 3 0 22.5 0 0
          23 3 3 23 0 3
          23 3 0 23 0 0
          23.5 3 3 23.5 0 3
          23.5 3 0 23.5 0 0
          24 3 3 24 0 3
          24 3 0 24 0 0
          24.5 3 3 24.5 0 3
          24.5 3 0 24.5 0 0
          25 3 3 25 0 3
          25 3 0 25 0 0
          25.5 3 3 25.5 0 3
          25.5 3 0 25.5 0 0
          26 3 3 26 0 3
          26 3 0 26 0 0
          26.5 3 3 26.5 0 3
          26.5 3 0 26.5 0 0
          27 3 3 27 0 3
          27 3 0 27 0 0
          27.5 3 3 27.5 0 3
          27.5 3 0 27.5 0 0
          28 3 3 28 0 3
          28 3 0 28 0 0
          28.5 3 3 28.5 0 3
          28.5 3 0 28.5 0 0
          29 3 3 29 0 3
          29 3 0 29 0 0
          29.5 3 3 29.5 0 3
          29.5 3 0 29.5 0 0
          30 3 3 30 0 3
          30 3 0 30 0 0
          30.5 3 3 30.5 0 3
          30.5 3 0 30.5 0 0
          31 3 3 31 0 3
          31 3 0 31 0 0
          31.5 3 3 31.5 0 3
          31.5 3 0 31.5 0 0
          32 3 3 32 0 3
          32 3 0 32 0 0
          32.5 3 3 32.5 0 3
          32.5 3 0 32.5 0 0
          33 3 3 33 0 3
          33 3 0 33 0 0
          33.5 3 3 33.5 0 3
          33.5 3 0 33.5 0 0
          34 3 3 34 0 3
          34 3 0 34 0 0
          34.5 3 3 34.5 0 3
          34.5 3 0 34.5 0 0
          35 3 3 35 0 3
          35 3 0 35 0 0
          35.5 3 3 35.5 0 3
          35.5 3 0 35.5 0 0
          36 3 3 36 0 3
          36 3 0 36 0 0
          36.5 3 3 36.5 0 3
          36.5 3 0 36.5 0 0
          37 3 3 37 0 3
          37 3 0 37 0 0
          37.5 3 3 37.5 0 3
          37.5 3 0 37.5 0 0
          38 3 3 38 0 3
          38 3 0 38 0 0
          38.5 3 3 38.5 0 3
          38.5 3 0 38.5 0 0
          39 3 3 39 0 3
          39 3 0 39 0 0
          39.5 3 3 39.5 0 3
          39.5 3 0 39.5 0 0
          40 3 3 40 0 3
          40 3 0 40 0 0
          40.5 3 3 40.5 0 3
          40.5 3 0 40.5 0 0
          41 3 3 41 0 3
          41 3 0 41 0 0
          41.5 3 3 41.5 0 3
          41.5 3 0 41.5 0 0
          42 3 3 42 0 3
          42 3 0 42 0 0
          42.5 3 3 42.5 0 3
          42.5 3 0 42.5 0 0
          43 3 3 43 0 3
          43 3 0 43 0 0
          43.5 3 3 43.5 0 3
          43.5 3 0 43.5 0 0
          44 3 3 44 0 3
          44 3 0 44 0 0
          44.5 3 3 44.5 0 3
          44.5 3 0 44.5 0 0
          45 3 3 45 0 3
          45 3 0 45 0 0
          45.5 3 3 45.5 0 3
          45.5 3 0 45.5 0 0
          46 3 3 46 0 3
          46 3 0 46 0 0
          46.5 3 3 46.5 0 3
          46.5 3 0 46.5 0 0
          47 3 3 47 0 3
          47 3 0 47 0 0
          47.5 3 3 47.5 0 3
          47.5 3 0 47.5 0 0
          48 3 3 48 0 3
          48 3 0 48 0 0
          48.5 3 3 48.5 0 3
          48.5 3 0 48.5 0 0
          49 3 3 49 0 3
          49 3 0 49 0 0
          49.5 3 3 49.5 0 3
          49.5 3 0 49.5 0 0
          50 3 3 50 0 3
          50 3 0 50 0 0
        </DataArray>
      </Points>
      <Cells>
        <DataArray type="Int64" Name="connectivity" format="ascii" RangeMin="0" RangeMax="803">
          4 5 6 7 0 1
          2 3 10 4 7 11
          8 0 3 9 14 10
          11 15 12 8 9 13
          18 14 15 19 16 12
          13 17 22 18 19 23
          20 16 17 21 26 22
          23 27 24 20 21 25
          30 26 27 31 28 24
          25 29 34 30 31 35
          32 28 29 33 38 34
          35 39 36 32 33 37
          42 38 39 43 40 36
          37 41 46 42 43 47
          44 40 41 45 50 46
          47 51 48 44 45 49
          54 50 51 55 52 48
          49 53 58 54 55 59
          56 52 53 57 62 58
          59 63 60 56 57 61
          66 62 63 67 64 60
          61 65 70 66 67 71
          68 64 65 69 74 70
          71 75 72 68 69 73
          78 74 75 79 76 72
          73 77 82 78 79 83
          80 76 77 81 86 82
          83 87 84 80 81 85
          90 86 87 91 88 84
          85 89 94 90 91 95
          92 88 89 93 98 94
          95 99 96 92 93 97
          102 98 99 103 100 96
          97 101 106 102 103 107
          104 100 101 105 110 106
          107 111 108 104 105 109
          114 110 111 115 112 108
          109 113 118 114 115 119
          116 112 113 117 122 118
          119 123 120 116 117 121
          126 122 123 127 124 120
          121 125 130 126 127 131
          128 124 125 129 134 130
          131 135 132 128 129 133
          138 134 135 139 136 132
          133 137 142 138 139 143
          140 136 137 141 146 142
          143 147 144 140 141 145
          150 146 147 151 148 144
          145 149 154 150 151 155
          152 148 149 153 158 154
          155 159 156 152 153 157
          162 158 159 163 160 156
          157 161 166 162 163 167
          164 160 161 165 170 166
          167 171 168 164 165 169
          174 170 171 175 172 168
          169 173 178 174 175 179
          176 172 173 177 182 178
          179 183 180 176 177 181
          186 182 183 187 184 180
          181 185 190 186 187 191
          188 184 185 189 194 190
          191 195 192 188 189 193
          198 194 195 199 196 192
          193 197 202 198 199 203
          200 196 197 201 206 202
          203 207 204 200 201 205
          210 206 207 211 208 204
          205 209 214 210 211 215
          212 208 209 213 218 214
          215 219 216 212 213 217
          222 218 219 223 220 216
          217 221 226 222 223 227
          224 220 221 225 230 226
          227 231 228 224 225 229
          234 230 231 235 232 228
          229 233 238 234 235 239
          236 232 233 237 242 238
          239 243 240 236 237 241
          246 242 243 247 244 240
          241 245 250 246 247 251
          248 244 245 249 254 250
          251 255 252 248 249 253
          258 254 255 259 256 252
          253 257 262 258 259 263
          260 256 257 261 266 262
          263 267 264 260 261 265
          270 266 267 271 268 264
          265 269 274 270 271 275
          272 268 269 273 278 274
          275 279 276 272 273 277
          282 278 279 283 280 276
          277 281 286 282 283 287
          284 280 281 285 290 286
          287 291 288 284 285 289
          294 290 291 295 292 288
          289 293 298 294 295 299
          296 292 293 297 302 298
          299 303 300 296 297 301
          306 302 303 307 304 300
          301 305 310 306 307 311
          308 304 305 309 314 310
          311 315 312 308 309 313
          318 314 315 319 316 312
          313 317 322 318 319 323
          320 316 317 321 326 322
          323 327 324 320 321 325
          330 326 327 331 328 324
          325 329 334 330 331 335
          332 328 329 333 338 334
          335 339 336 332 333 337
          342 338 339 343 340 336
          337 341 346 342 343 347
          344 340 341 345 350 346
          347 351 348 344 345 349
          354 350 351 355 352 348
          349 353 358 354 355 359
          356 352 353 357 362 358
          359 363 360 356 357 361
          366 362 363 367 364 360
          361 365 370 366 367 371
          368 364 365 369 374 370
          371 375 372 368 369 373
          378 374 375 379 376 372
          373 377 382 378 379 383
          380 376 377 381 386 382
          383 387 384 380 381 385
          390 386 387 391 388 384
          385 389 394 390 391 395
          392 388 389 393 398 394
          395 399 396 392 393 397
          402 398 399 403 400 396
          397 401 406 402 403 407
          404 400 401 405 410 406
          407 411 408 404 405 409
          414 410 411 415 412 408
          409 413 418 414 415 419
          416 412 413 417 422 418
          419 423 420 416 417 421
          426 422 423 427 424 420
          421 425 430 426 427 431