<?xml version="1.0"?>
<VTKFile type="UnstructuredGrid" version="0.1" byte_order="LittleEndian" header_type="UInt32">
  <UnstructuredGrid>
    <Piece NumberOfPoints="12" NumberOfCells="6">
      <PointData>
      </PointData>
      <CellData>
        <DataArray type="Int32" Name="MaterialIDs" format="ascii" RangeMin="0" RangeMax="1">
          0 0 0 1 1 1
        </DataArray>
      </CellData>
      <Points>
        <DataArray type="Float64" Name="Points" NumberOfComponents="3" format="ascii" RangeMin="0" RangeMax="3.1622776602">
          0 0 0 0 1 0
          1 0 0 0 0 1
          0 1 1 1 0 1
          0 0 2 0 1 2
          1 0 2 0 0 3
          0 1 3 1 0 3
        </DataArray>
      </Points>
      <Cells>
        <DataArray type="Int64" Name="connectivity" format="ascii" RangeMin="0" RangeMax="11">
          0 1 2 3 4 5
          3 4 5 6 7 8
          6 7 8 9 10 11
          9 6 6 3 3 0
        </DataArray>
        <DataArray type="Int64" Name="offsets" format="ascii" RangeMin="6" RangeMax="24">
          6 12 18 20 22 24
        </DataArray>
        <DataArray type="UInt8" Name="types" format="ascii" RangeMin="3" RangeMax="13">
          13 13 13 3 3 3
        </DataArray>
      </Cells>
    </Piece>
  </UnstructuredGrid>
</VTKFile>
