<?xml version="1.0"?>
<VTKFile type="UnstructuredGrid" version="1.0" byte_order="LittleEndian" header_type="UInt64">
  <UnstructuredGrid>
    <Piece NumberOfPoints="1170" NumberOfCells="1974">
      <PointData>
      </PointData>
      <CellData>
        <DataArray type="Int32" Name="MaterialIDs" format="ascii" RangeMin="0" RangeMax="3">
          3 0 0 0 0 0
          0 0 0 0 0 0
          0 0 0 0 0 0
          0 0 0 0 0 0
          0 0 0 0 0 0
          0 0 0 0 0 0
          0 0 0 0 0 0
          0 0 0 0 0 0
          0 0 0 0 0 0
          0 0 0 0 0 0
          0 0 0 0 0 0
          0 0 0 0 0 0
          0 0 0 0 0 0
          0 0 0 0 0 0
          0 0 0 0 0 0
          0 0 0 0 0 0
          0 0 0 0 0 0
          0 0 0 0 0 0
          0 0 0 0 0 0
          0 0 0 0 0 0
          0 0 0 0 0 0
          0 0 0 0 0 0
          0 0 0 0 0 0
          0 0 0 0 0 0
          0 0 0 0 0 0
          0 0 0 0 0 0
          0 0 0 0 0 0
          0 0 0 0 0 0
          0 0 0 0 0 0
          0 0 0 0 0 0
          0 0 0 0 0 0
          0 0 0 0 0 0
          0 0 0 0 0 0
          0 0 0 0 0 0
          0 0 0 0 0 0
          0 0 0 0 0 0
          0 0 0 0 0 0
          0 0 0 0 0 0
          0 0 0 0 0 0
          0 0 0 0 0 0
          0 0 0 0 0 0
          0 0 0 0 0 0
          0 0 0 0 0 0
          0 0 0 0 0 0
          0 0 0 0 0 0
          0 0 0 0 0 0
          0 0 0 0 0 0
          0 0 0 0 0 0
          0 0 0 0 0 0
          0 0 0 0 0 0
          0 0 0 0 0 0
          0 0 0 0 0 0
          0 0 0 0 0 0
          0 0 0 0 0 0
          0 0 0 0 0 0
          0 0 0 0 0 0
          0 0 0 0 0 0
          0 0 0 0 0 0
          0 0 0 0 0 0
          0 0 0 0 0 0
          0 0 0 0 0 0
          0 0 0 0 0 0
          0 0 0 0 0 0
          0 0 0 0 0 0
          0 0 0 0 0 0
          0 0 0 0 0 0
          0 0 0 0 0 0
          0 0 0 0 0 0
          0 0 0 0 0 0
          0 0 0 0 0 0
          0 0 0 0 0 0
          0 0 0 0 0 0
          0 0 0 0 0 0
          0 0 0 0 0 0
          0 0 0 0 0 0
          0 0 0 0 0 0
          0 0 0 0 0 0
          0 0 0 0 0 0
          0 0 0 0 0 0
          0 0 0 0 0 0
          0 0 0 0 0 0
          0 0 0 0 0 0
          0 0 0 0 0 0
          0 0 0 0 0 0
          0 0 0 0 0 0
          0 0 0 0 0 0
          0 0 0 0 0 0
          0 0 0 0 0 0
          0 0 0 0 0 0
          0 0 0 0 0 0
          0 0 0 0 0 0
          0 0 0 0 0 0
          0 0 0 0 0 0
          0 0 0 0 0 0
          0 0 0 0 0 0
          0 0 0 0 0 0
          0 0 0 0 0 0
          0 0 0 0 0 0
          0 0 0 0 0 0
          0 0 0 0 0 0
          0 0 0 0 0 0
          0 0 0 0 0 0
          0 0 0 0 0 0
          0 0 0 0 0 0
          0 0 0 0 0 0
          0 0 0 0 0 0
          0 0 0 0 0 0
          0 0 0 0 0 0
          0 0 0 0 0 0
          0 0 0 0 0 0
          0 0 0 0 0 0
          0 0 0 0 0 0
          0 0 0 0 0 0
          0 0 0 0 0 0
          0 0 0 0 0 0
          0 0 0 0 0 0
          0 0 0 0 0 0
          0 0 0 0 0 0
          0 0 0 0 0 0
          0 0 0 0 0 0
          0 0 0 0 0 0
          0 0 0 0 0 0
          0 0 0 0 0 0
          0 0 0 0 0 0
          0 0 0 0 0 0
          0 0 0 0 0 0
          0 0 0 0 0 0
          0 0 0 0 0 0
          0 0 0 0 0 0
          0 0 0 0 0 0
          0 0 0 0 0 0
          0 0 0 0 0 0
          0 0 0 0 0 0
          0 0 0 0 0 0
          0 0 0 0 0 0
          0 0 0 0 0 0
          0 0 0 0 0 0
          0 0 0 0 0 0
          0 0 0 0 0 0
          0 0 0 0 0 0
          0 0 0 0 0 0
          0 0 0 0 0 0
          0 0 0 0 0 0
          0 0 0 0 0 0
          0 0 0 0 0 0
          0 0 0 0 0 0
          0 0 0 0 0 0
          0 0 0 0 0 0
          0 0 0 0 0 0
          0 0 0 0 0 0
          0 0 0 0 0 0
          0 0 0 0 0 0
          0 0 0 0 0 0
          0 0 0 0 0 0
          0 0 0 0 0 0
          0 0 0 0 0 0
          0 0 0 0 0 0
          0 0 0 0 0 0
          0 0 0 0 0 0
          0 0 0 0 0 0
          0 0 0 0 0 0
          0 0 0 0 0 0
          0 0 0 0 0 0
          0 0 0 0 0 0
          0 0 0 0 0 0
          0 0 0 0 0 0
          0 0 0 0 0 0
          0 0 0 0 0 0
          0 0 0 0 0 0
          0 0 0 0 0 0
          0 0 1 1 1 1
          1 1 1 1 1 1
          1 1 1 1 1 1
          1 1 1 1 1 1
          1 1 1 1 1 1
          1 1 1 1 1 1
          1 1 1 1 1 1
          1 1 1 1 1 1
          1 1 1 1 1 1
          1 1 1 1 1 1
          1 1 1 1 1 1
          1 1 1 1 1 1
          1 1 1 1 1 1
          1 1 1 1 1 1
          1 1 1 1 1 1
          1 1 1 1 1 1
          1 1 1 1 1 1
          1 1 1 1 1 1
          1 1 1 1 1 1
          1 1 1 1 1 1
          1 1 1 1 1 1
          1 1 1 1 1 1
          1 1 1 1 1 1
          1 1 1 1 1 1
          1 1 1 1 1 1
          1 1 1 1 1 1
          1 1 1 1 1 1
          1 1 1 1 1 1
          1 1 1 1 1 1
          1 1 1 1 1 1
          1 1 1 1 1 1
          1 1 1 1 1 1
          1 1 1 1 1 1
          1 1 1 1 1 1
          1 1 1 1 1 1
          1 1 1 1 1 1
          1 1 1 1 1 1
          1 1 1 1 1 1
          1 1 1 1 1 1
          1 1 1 1 1 1
          1 1 1 1 1 1
          1 1 1 1 1 1
          1 1 1 1 1 1
          1 1 1 1 1 1
          1 1 1 1 1 1
          1 1 1 1 1 1
          1 1 1 1 1 1
          1 1 1 1 1 1
          1 1 1 1 1 1
          1 1 1 1 1 1
          1 1 1 1 1 1
          1 1 1 1 1 1
          1 1 1 1 1 1
          1 1 1 1 1 1
          1 1 1 1 1 1
          1 1 1 1 1 1
          1 1 1 1 1 1
          1 1 1 1 1 1
          1 1 1 1 1 1
          1 1 1 1 1 1
          1 1 1 1 1 1
          1 1 1 1 1 1
          1 1 1 1 1 1
          1 1 1 1 1 1
          1 1 1 1 1 1
          1 1 1 1 1 1
          1 1 1 1 1 1
          1 1 1 1 1 1
          1 1 1 1 1 1
          1 1 1 1 1 1
          1 1 1 1 1 1
          1 1 1 1 1 1
          1 1 1 1 1 1
          1 1 1 1 1 1
          1 1 1 1 1 1
          1 1 1 1 1 1
          1 1 1 1 1 1
          1 1 1 1 1 1
          1 1 1 1 1 1
          1 1 1 1 1 1
          1 1 1 1 1 1
          1 1 1 1 1 1
          1 1 1 1 1 1
          1 1 1 1 1 1
          1 1 1 1 1 1
          1 1 1 1 1 1
          1 1 1 1 1 1
          1 1 1 1 1 1
          1 1 1 1 1 1
          1 1 1 1 1 1
          1 1 1 1 1 1
          1 1 1 1 1 1
          1 1 1 1 1 1
          1 1 1 1 1 1
          1 1 1 1 1 1
          1 1 1 1 1 1
          1 1 1 1 1 1
          1 1 1 1 1 1
          1 1 1 1 1 1
          1 1 1 1 1 1
          1 1 1 1 1 1
          1 1 1 1 1 1
          1 1 1 1 1 1
          1 1 1 1 1 1
          1 1 1 1 1 1
          1 1 1 1 1 2
          2 2 2 2 2 2
          2 2 2 2 2 2
          2 2 2 2 2 2
          2 2 2 2 2 2
          2 2 2 2 2 2
          2 2 2 2 2 2
          2 2 2 2 2 2
          2 2 2 2 2 2
          2 2 2 2 2 2
          2 2 2 2 2 2
          2 2 2 2 2 2
          2 2 2 2 2 2
          2 2 2 2 2 2
          2 2 2 2 2 2
          2 2 2 2 2 2
          2 2 2 2 2 2
          2 2 2 2 2 2
          2 2 2 2 2 2
          2 2 2 2 2 2
          2 2 2 2 2 2
          2 2 2 2 2 2
          2 2 2 2 2 2
          2 2 2 2 2 2
          2 2 2 2 2 2
          2 2 2 2 2 2
          2 2 2 2 2 2
          2 2 2 2 2 2
          2 2 2 2 2 2
          2 2 2 2 2 2
          2 2 2 2 2 2
          2 2 2 2 2 2
          2 2 2 2 2 2
          2 2 2 2 2 2
          2 2 2 2 2 2
          2 2 2 2 2 2
          2 2 2 2 2 2
          2 2 2 2 2 2
          2 2 2 2 2 2
          2 2 2 2 2 2
          2 2 2 2 2 2
          2 2 2 2 2 2
          2 2 2 2 2 2
          2 2 2 2 2 2
          2 2 2 2 2 2
          2 2 2 2 2 2
          2 2 2 2 2 2
          2 2 2 2 2 2
          2 2 2 2 2 2
          2 2 2 2 2 2
          2 2 2 2 2 2
          2 2 2 2 2 2
          2 2 2 2 2 2
          2 2 2 2 2 2
        </DataArray>
      </CellData>
      <Points>
        <DataArray type="Float64" Name="Points" NumberOfComponents="3" format="ascii" RangeMin="5513222.256242318" RangeMax="5519378.61364126">
          449170.310546875 5496579.029785156 -4837.14501953125 449094.876953125 5496720.630371094 -4679.16552734375
          449093.892578125 5496970.841796875 -4826.0380859375 449021.927734375 5496978.108886719 -4582.15625
          449163.330078125 5496843.136230469 -5000 449182.953125 5496348.701171875 -4663.44140625
          449274.18359375 5496203.6044921875 -4832.2265625 449073.373046875 5496575.707519531 -4495.1708984375
          449210.79296875 5496114.922363281 -4511.02685546875 448966.26953125 5496917.834472656 -4351.046875
          449004.92578125 5496611.55078125 -4279.203125 448958.294921875 5497239.911621094 -4458.267578125
          449037.54296875 5497264.344238281 -4731.5322265625 448891.412109375 5497152.7939453125 -4190.61669921875
          448915.740234375 5497504.9189453125 -4339.51220703125 448917.30859375 5496785.555175781 -4106.240234375
          448832.412109375 5497017.3212890625 -3935.3134765625 449023.8203125 5496366.496582031 -4134.38720703125
          448924.23828125 5496529.804199219 -3942.135986328125 449116.212890625 5496264.279785156 -4346.8955078125
          449156.2421875 5495989.3505859375 -4188.2607421875 449258.8828125 5495843.246582031 -4358.03759765625
          449059.220703125 5496092.9072265625 -3985.273193359375 449196.42578125 5495725.995605469 -4022.6982421875
          449085.107421875 5495850.201660156 -3812.06591796875 449303.693359375 5495585.713378906 -4195.44873046875
          449354.00390625 5495317.3828125 -4030.24462890625 449446.841796875 5495243.1455078125 -4223.44482421875
          449239.36328125 5495480.479980469 -3875.442626953125 449307.52734375 5495310.201660156 -3879.38720703125
          449111.275390625 5495625.265136719 -3653.215576171875 449263.36328125 5495306.6142578125 -3747.906982421875
          448950.876953125 5496073.298339844 -3622.306884765625 448956.482421875 5496247.308105469 -3804.82421875
          448996.337890625 5495812.840332031 -3505.6181640625 448876.15234375 5496081.037597656 -3398.656494140625
          449111.7421875 5495446.283691406 -3463.662353515625 449219.8046875 5495257.177246094 -3566.499755859375
          448981.1015625 5495676.268066406 -3326.527099609375 449114.978515625 5495289.9296875 -3301.839111328125
          448862.373046875 5495888.0498046875 -3184.210693359375 448985.10546875 5495474.251953125 -3130.87646484375
          448766.08203125 5496291.489746094 -3243.5361328125 448793.634765625 5496449.515136719 -3453.75341796875
          448747.3828125 5496106.7578125 -3037.933349609375 448668.87109375 5496482.380859375 -3081.48876953125
          448815.939453125 5495756.630859375 -2930.981689453125 448700.98828125 5496001.447265625 -2816.641357421875
          448780.15625 5495609.484375 -2687.21728515625 448641.4296875 5496313.407714844 -2879.782958984375
          448566.0390625 5496405.6298828125 -2712.918212890625 448583.537109375 5496646.454589844 -2908.876220703125
          448609.556640625 5496855.26171875 -3099.108154296875 448533.8515625 5496976.292480469 -2896.679931640625
          448694.330078125 5496687.691894531 -3289.510986328125 448645.734375 5497061.193359375 -3307.142578125
          448567.046875 5497211.442871094 -3078.2890625 448738.384765625 5496847.658203125 -3522.115234375
          448678.87890625 5497288.331542969 -3488.100341796875 448851.048828125 5496434.9951171875 -3624.58740234375
          448830.22265625 5496700.609863281 -3753.027099609375 448754.36328125 5497122.326171875 -3701.877685546875
          448784.328125 5497421.937011719 -3888.590087890625 448719.65625 5497535.30859375 -3671.7314453125
          448845.24609375 5497444.6455078125 -4098.1357421875 448832.99609375 5497801.816894531 -4026.4287109375
          448900.818359375 5497820.3818359375 -4248.32958984375 448971.90234375 5497839.1767578125 -4473.70703125
          448980.2890625 5498198.40234375 -4353.6669921875 448989.771484375 5497534.98828125 -4593.5771484375
          449050.689453125 5497845.048828125 -4724.3193359375 449067.642578125 5497584.3564453125 -4840.1943359375
          449120.64453125 5497230.095214844 -5000 449120.302734375 5497619.354003906 -5000
          449161.328125 5498006.51953125 -5000 449118.591796875 5498113.677734375 -4821.07275390625
          449232.35546875 5498389.3876953125 -5000 449044.279296875 5498129.006347656 -4585.890625
          449150.30859375 5498403.8046875 -4744.5859375 449090.298828125 5498469.474609375 -4523.78857421875
          449263.10546875 5498696.4814453125 -4868.06494140625 449209.935546875 5498750.4580078125 -4672.1162109375
          449328.04296875 5498766.9482421875 -5000 449330.369140625 5499022.1875 -4804.8232421875
          449433.03515625 5499142.0576171875 -5000 449280.896484375 5499134.8369140625 -4573.9404296875
          449169.533203125 5498845.4921875 -4482.60400390625 449381.732421875 5499335.119140625 -4698.49365234375
          449346.271484375 5499538.4228515625 -4436.43701171875 449457.431640625 5499418.279296875 -4844.5712890625
          449462.234375 5499670.8603515625 -4653.76611328125 449541.064453125 5499516.3095703125 -5000
          449558.466796875 5499780.275390625 -4832.71044921875 449651.197265625 5499889.9462890625 -5000
          449670.486328125 5500148.2470703125 -4836.6513671875 449580.60546875 5500047.9970703125 -4673.39111328125
          449765.390625 5500262.3583984375 -5000 449784.75390625 5500489.833984375 -4852.4453125
          449697.265625 5500422.4638671875 -4673.669921875 449886.8359375 5500632.4677734375 -5000
          449823.216796875 5500736.5068359375 -4732.59130859375 449932.875 5501000 -4778.35986328125
          449850.099609375 5501000 -4556.69189453125 450015.8671875 5501000 -5000
          449732.025390625 5500703.4912109375 -4517.30078125 449767.427734375 5501000 -4335.00927734375
          449634.12890625 5500579.310546875 -4363.80224609375 449605.400390625 5500314.013671875 -4516.41845703125
          449643.1875 5500762.63671875 -4224.6943359375 449683.89453125 5501000 -4113.44189453125
          449519.7734375 5500438.64453125 -4178.1318359375 449514.265625 5500219.814453125 -4347.6162109375
          449547.705078125 5500698.02734375 -4026.6826171875 449412.9453125 5500359.630859375 -3957.846923828125
          449599.990234375 5501000 -3891.923583984375 449463.765625 5500685.0673828125 -3815.08740234375
          449515.892578125 5501000 -3670.43115234375 449338.109375 5500415.5341796875 -3710.026611328125
          449291.494140625 5500159.24609375 -3793.97265625 449386.470703125 5500712.1484375 -3586.21630859375
          449264.8671875 5500422.6455078125 -3509.3359375 449431.8515625 5501000 -3448.93115234375
          449286.4296875 5500663.248046875 -3364.185791015625 449348.44921875 5501000 -3227.34619140625
          449157.61328125 5500220.880859375 -3384.429443359375 449193.697265625 5500092.08203125 -3582.96240234375
          449174.857421875 5500495.6376953125 -3208.891845703125 449056.146484375 5500051.1552734375 -3241.235107421875
          449174.0390625 5500706.6845703125 -3022.45849609375 449049.9609375 5500285.6298828125 -3042.549560546875
          449267.01953125 5501000 -3005.50146484375 449186.4609375 5501000 -2783.54443359375
          449056.25390625 5500531.955078125 -2853.525390625 449046.208984375 5500698.537109375 -2677.59619140625
          448929.220703125 5500346.0576171875 -2658.828369140625 449106.052734375 5501000 -2561.568115234375
          448952.1875 5500630.64453125 -2476.401123046875 449026.33203125 5501000 -2339.504150390625
          448868.119140625 5500602.5654296875 -2263.797119140625 448947.6875 5501000 -2117.304931640625
          448817.794921875 5500225.3408203125 -2445.758544921875 448734.263671875 5500239.3408203125 -2196.912841796875
          448782.380859375 5500599.876953125 -2021.2362060546875 448685.2578125 5499893.34765625 -2329.56201171875
          448736.380859375 5499821.0283203125 -2527.018798828125 448598.458984375 5499866.3818359375 -2102.693359375
          448566.244140625 5499560.287109375 -2233.522216796875 448658.4453125 5500219.3935546875 -1996.34326171875
          448535.1015625 5499894.9443359375 -1899.2021484375 448623.45703125 5500305.0888671875 -1822.4268798828125
          448460.931640625 5499489.810546875 -1980.3997802734375 448414.193359375 5499588.16796875 -1775.228515625
          448469.646484375 5499261.1572265625 -2157.221435546875 448376.830078125 5499051.861328125 -2016.703125
          448530.58203125 5499196.80859375 -2372.118408203125 448632.486328125 5499501.4189453125 -2462.218994140625
          448417.431640625 5498891.3095703125 -2227.09619140625 448498.044921875 5498868.076171875 -2473.88525390625
          448310.2421875 5498653.1904296875 -2040.947509765625 448279.271484375 5498810.2001953125 -1871.2955322265625
          448334.0703125 5498466.2998046875 -2195.866943359375 448409.7265625 5498614.5068359375 -2351.108154296875
          448242.76171875 5498281.9130859375 -2001.6220703125 448286.638671875 5498105.9931640625 -2180.10791015625
          448207.55078125 5498465.0703125 -1829.9010009765625 448147.759765625 5498114.208984375 -1775.2353515625
          448125.025390625 5498390.5048828125 -1614.126220703125 448197.662109375 5497958.44140625 -1952.32568359375
          448101.58984375 5497811.4150390625 -1686.490966796875 448253.26953125 5497769.217285156 -2133.549072265625
          448334.185546875 5497877.890136719 -2365.93896484375 448172.546875 5497645.994140625 -1899.1649169921875
          448238.025390625 5497384.0478515625 -2072.031005859375 448298.712890625 5497495.26953125 -2267.010009765625
          448179.26171875 5497242.350097656 -1878.845458984375 448117.1484375 5497439.669921875 -1722.7464599609375
          448253.26171875 5496981.523925781 -2034.479736328125 448200.46875 5496837.539550781 -1835.267578125
          448316.49609375 5497082.8251953125 -2249.769287109375 448335.015625 5496710.2548828125 -2179.646240234375
          448395.849609375 5496701.255371094 -2360.174560546875 448298.78125 5496564.851074219 -2007.5537109375
          448420.626953125 5496325.560058594 -2228.72314453125 448256.548828125 5496421.537109375 -1817.1937255859375
          448377.21875 5496173.4208984375 -2008.30322265625 448156.80078125 5496662.998046875 -1647.9010009765625
          448218.560546875 5496263.327636719 -1626.8223876953125 448119.5859375 5497069.392089844 -1668.70947265625
          448069.560546875 5496808.551269531 -1457.7945556640625 448062.423828125 5497460.189941406 -1567.3642578125
          448055.853515625 5497137.9580078125 -1503.2335205078125 448020.982421875 5497703.352050781 -1450.7147216796875
          448063.673828125 5498052.482910156 -1535.6781005859375 447998.4765625 5497344.9287109375 -1367.6282958984375
          447949.888671875 5497614.158203125 -1238.6087646484375 447940.15625 5497506.2392578125 -1205.81005859375
          447984.970703125 5497962.060546875 -1317.4063720703125 447918.21875 5497923.5009765625 -1114.292236328125
          448039.724609375 5498311.01953125 -1386.9908447265625 447958.66015625 5498223.6591796875 -1163.0650634765625
          448026.6484375 5498556.27734375 -1236.45166015625 447968.5703125 5498469.357421875 -1085.9984130859375
          448116.603515625 5498666.1591796875 -1462.8638916015625 448111.294921875 5498910.658203125 -1306.9232177734375
          448205.67578125 5498763.51953125 -1679.9461669921875 448211.2265625 5499050.5244140625 -1531.9625244140625
          448324.56640625 5499157.716796875 -1801.0015869140625 448308.32421875 5499340.93359375 -1636.2308349609375
          448372.7265625 5499703.0078125 -1569.1966552734375 448491.974609375 5499980.28515625 -1706.0203857421875
          448264.638671875 5499435.3046875 -1438.9864501953125 448327.42578125 5499795.662109375 -1358.8359375
          448178.51171875 5499257.5869140625 -1293.73779296875 448238.220703125 5499623.1630859375 -1214.149658203125
          448093.93359375 5499094.2587890625 -1129.295166015625 448160.37109375 5499348.8046875 -1166.5498046875
          448086.494140625 5499063.1708984375 -1125.908203125 448024.923828125 5498777.40234375 -1103.0072021484375
          448014.681640625 5498726.578125 -1099.07177734375 448236.708984375 5499619.8203125 -1211.7376708984375
          448237.98828125 5499624.1962890625 -1212.544921875 448239.21484375 5499628.212890625 -1213.174072265625
          448320.041015625 5499891.5263671875 -1255.8504638671875 448383.5625 5500104.4599609375 -1275.6197509765625
          448397.91796875 5500125.833984375 -1302.414794921875 448402.7890625 5500170.5498046875 -1277.40966796875
          448443.123046875 5500054.310546875 -1501.5538330078125 448510.59765625 5500401.3369140625 -1403.1041259765625
          448568.51953125 5500350.98046875 -1621.761474609375 448717.45703125 5500657.66796875 -1782.247802734375
          448646.4296875 5500686.1962890625 -1548.505859375 448792.298828125 5501000 -1672.6695556640625
          448716.103515625 5501000 -1450.169189453125 448869.798828125 5501000 -1895.01123046875
          448570.484375 5500699.751953125 -1307.0916748046875 448658.494140625 5501000 -1278.7427978515625
          448536.359375 5500626.1259765625 -1271.0279541015625 448559.0859375 5500702.11328125 -1270.001953125
          448467.3984375 5500395.1748046875 -1275.5068359375 448601.53125 5500831.4296875 -1272.1876220703125
          447947.490234375 5498325.34765625 -1081.439208984375 447928.17578125 5498169.328125 -1081.525146484375
          447913.626953125 5497937.607910156 -1096.20361328125 447913.203125 5497890.658203125 -1103.001708984375
          447924.19921875 5497634.15625 -1161.46533203125 447967.763671875 5497327.459472656 -1278.0103759765625
          447993.708984375 5497197.8056640625 -1330.173095703125 448017.0390625 5497063.575683594 -1377.32958984375
          448062.490234375 5496825.6552734375 -1442.61083984375 448067.201171875 5496802.074707031 -1449.09814453125
          448078.162109375 5496746.0771484375 -1457.8497314453125 448124.0703125 5496506.6767578125 -1494.65771484375
          448145.12109375 5496411.24609375 -1505.69677734375 448200.037109375 5496175.019042969 -1526.7034912109375
          448299.875 5495855.1240234375 -1589.558837890625 448265.068359375 5495927.2216796875 -1544.0262451171875
          448329.77734375 5496025.640625 -1783.273681640625 448435.974609375 5495610.3544921875 -1756.218994140625
          448444.03125 5495827.110839844 -1944.9498291015625 448522.759765625 5495862.5185546875 -2186.26708984375
          448559.51171875 5495549.7236328125 -2022.985595703125 448689.052734375 5495430.516113281 -2261.10107421875
          448575.548828125 5495299.9404296875 -1848.0909423828125 448691.9375 5495241.08203125 -2088.443359375
          448494.2890625 5495275.188964844 -1630.9095458984375 448608.158203125 5495000 -1675.3695068359375
          448395.162109375 5495504.695800781 -1573.365966796875 448334.9453125 5495693.648925781 -1559.4801025390625
          448450.001953125 5495353.790527344 -1586.16845703125 448497.466796875 5495223.456542969 -1598.0899658203125
          448584.072265625 5495000 -1620.9635009765625 448290.87109375 5495830.320800781 -1549.4189453125
          448702.140625 5495000 -1894.8709716796875 448791.958984375 5495000 -2114.986083984375
          448878.693359375 5495000 -2335.5390625 448803.94921875 5495340.734375 -2483.760986328125
          448961.931640625 5495000 -2556.568359375 448659.25 5495691.492675781 -2423.63134765625
          448542.591796875 5496058.58203125 -2396.6787109375 448676.02734375 5495857.946777344 -2622.993408203125
          448492.138671875 5496403.521484375 -2490.8876953125 448597.572265625 5496151.276855469 -2629.44384765625
          448459.982421875 5496713.0400390625 -2559.46484375 448515.75 5496689.873046875 -2722.759033203125
          448401.2265625 5497016.1142578125 -2490.71728515625 448465.220703125 5497039.5126953125 -2697.8974609375
          448427.111328125 5497383.15234375 -2646.9521484375 448497.228515625 5497327.380859375 -2866.727294921875
          448485.51953125 5497687.1484375 -2847.448974609375 448415.658203125 5497762.0947265625 -2620.60595703125
          448543.181640625 5497598.666503906 -3045.182373046875 448569.111328125 5498016.220214844 -3073.439208984375
          448604.58984375 5497422.830566406 -3253.615966796875 448596.505859375 5497791.378417969 -3219.321044921875
          448650.30859375 5497646.293457031 -3425.8212890625 448651.255859375 5498029.7705078125 -3353.248779296875
          448708.392578125 5497911.481933594 -3584.636474609375 448675.68359375 5498356.294921875 -3292.987548828125
          448627.294921875 5498434.451171875 -3098.93603515625 448737.28515625 5498302.294921875 -3523.698974609375
          448797.51171875 5498665.3623046875 -3499.5927734375 448740.78515625 5498720.8818359375 -3289.618896484375
          448853.806640625 5498607.365234375 -3713.150634765625 448933.6328125 5498957.37109375 -3707.296142578125
          448791.494140625 5498228.521484375 -3735.377685546875 448906.728515625 5498541.7236328125 -3919.917724609375
          448850.5078125 5498186.604003906 -3943.96142578125 448990.37109375 5498901.1005859375 -3916.294677734375
          449024.326171875 5498763.65625 -4118.5 448954.013671875 5498430.716796875 -4137.14599609375
          449115.591796875 5499106.3095703125 -4124.09375 449130.751953125 5498934.234375 -4301.376953125
          449085.388671875 5499272.4931640625 -3910.347412109375 449217.22265625 5499420.5859375 -4168.203125
          449193.533203125 5499622.3515625 -3945.5498046875 449231.306640625 5499221.271484375 -4364.71728515625
          449051.51171875 5498587.6943359375 -4326.6787109375 448903.6015625 5498123.903808594 -4146.19873046875
          448772.046875 5497836.898925781 -3816.458984375 449306.501953125 5499733.8388671875 -4171.3662109375
          449408.05078125 5499888.2802734375 -4328.3330078125 449296.337890625 5499964.7265625 -3961.016357421875
          449182.056640625 5499854.08984375 -3734.95166015625 449404.056640625 5500104.01171875 -4143.43310546875
          449484.375 5499927.3837890625 -4507.57470703125 449072.1640625 5499797.7412109375 -3476.28515625
          449087.77734375 5499557.3515625 -3701.07861328125 448964.0234375 5499680.3955078125 -3265.959228515625
          448961.931640625 5499400.3447265625 -3464.704345703125 448944.5078125 5499895.05859375 -3053.318603515625
          448847.1328125 5499525.517578125 -3051.077392578125 448938.6484375 5500132.150390625 -2857.77197265625
          448834 5499742.2041015625 -2858.99169921875 448830.26171875 5499980.662109375 -2671.26025390625
          448723.5 5499556.283203125 -2681.02490234375 448613.0859375 5499161.138671875 -2630.0947265625
          448731.4921875 5499333.3203125 -2856.281005859375 448645.888671875 5498956.234375 -2854.460205078125
          448541.853515625 5498736.9208984375 -2676.265625 448757.921875 5499150.701171875 -3056.871337890625
          448686.455078125 5498798.291015625 -3074.494140625 448875.068359375 5499361.2734375 -3246.40283203125
          448812.49609375 5499060.9873046875 -3277.973388671875 448874.70703125 5499021.5478515625 -3488.246826171875
          448584.287109375 5498581.8076171875 -2886.671142578125 448548.09765625 5498240.5625 -2930.622314453125
          448496.08984375 5498349.849609375 -2723.77783203125 448449.130859375 5498472.333984375 -2531.427001953125
          448416.08984375 5498088.646484375 -2567.418701171875 448365.93359375 5498244.3837890625 -2375.356689453125
          448485.501953125 5498002.967285156 -2800.882568359375 448362.759765625 5497591.248535156 -2462.714599609375
          448362.595703125 5497277.486816406 -2431.036376953125 449000.587890625 5499263.4013671875 -3676.5234375
          448900.15625 5495286.032714844 -2693.1162109375 448919.11328125 5495416.572753906 -2885.317138671875
          449042.380859375 5495000 -2777.96435546875 449057.53125 5495172.459472656 -3011.347412109375
          449121.7578125 5495000 -2999.497314453125 449200.23828125 5495000 -3221.143310546875
          449278.271484375 5495000 -3442.845458984375 449355.53515625 5495000 -3664.642578125
          449431.705078125 5495000 -3886.5732421875 449506.302734375 5495000 -4108.6923828125
          449578.68359375 5495000 -4331.06982421875 449414.51953125 5495435.639160156 -4362.67724609375
          449516.73828125 5495295.838378906 -4512.791015625 449359.435546875 5495694.367675781 -4511.59765625
          449648.646484375 5495000 -4553.7216796875 449596.74609375 5495260.064453125 -4730.5478515625
          449715.671875 5495000 -4776.69189453125 449454.009765625 5495571.1357421875 -4669.78173828125
          449534.2578125 5495500.728027344 -4851.20556640625 449632.92578125 5495360.92578125 -5000
          449400.05859375 5495836.298828125 -4834.25048828125 449311.5703125 5495950.507324219 -4668.3837890625
          449489.60546875 5495723.120605469 -5000 449358.1875 5496089.788574219 -5000
          449245.81640625 5496462.6767578125 -5000 449779.439453125 5495000 -5000
          448933.6328125 5498957.37109375 -3707.296142578125 448874.70703125 5499021.5478515625 -3488.246826171875
          448797.51171875 5498665.3623046875 -3499.5927734375 448740.78515625 5498720.8818359375 -3289.618896484375
          448853.806640625 5498607.365234375 -3713.150634765625 449000.587890625 5499263.4013671875 -3676.5234375
          449085.388671875 5499272.4931640625 -3910.347412109375 448961.931640625 5499400.3447265625 -3464.704345703125
          448812.49609375 5499060.9873046875 -3277.973388671875 449087.77734375 5499557.3515625 -3701.07861328125
          449072.1640625 5499797.7412109375 -3476.28515625 449193.533203125 5499622.3515625 -3945.5498046875
          449182.056640625 5499854.08984375 -3734.95166015625 449217.22265625 5499420.5859375 -4168.203125
          449306.501953125 5499733.8388671875 -4171.3662109375 449115.591796875 5499106.3095703125 -4124.09375
          448990.37109375 5498901.1005859375 -3916.294677734375 449231.306640625 5499221.271484375 -4364.71728515625