<?xml version="1.0"?>
<VTKFile type="UnstructuredGrid" version="1.0" byte_order="LittleEndian" header_type="UInt64">
  <UnstructuredGrid>
    <Piece NumberOfPoints="1216" NumberOfCells="2070">
      <PointData>
      </PointData>
      <CellData>
        <DataArray type="Int32" Name="MaterialIDs" format="ascii" RangeMin="0" RangeMax="3">
          3 0 0 0 0 0
          0 0 0 0 0 0
          0 0 0 0 0 0
          0 0 0 0 0 0
          0 0 0 0 0 0
          0 0 0 0 0 0
          0 0 0 0 0 0
          0 0 0 0 0 0
          0 0 0 0 0 0
          0 0 0 0 0 0
          0 0 0 0 0 0
          0 0 0 0 0 0
          0 0 0 0 0 0
          0 0 0 0 0 0
          0 0 0 0 0 0
          0 0 0 0 0 0
          0 0 0 0 0 0
          0 0 0 0 0 0
          0 0 0 0 0 0
          0 0 0 0 0 0
          0 0 0 0 0 0
          0 0 0 0 0 0
          0 0 0 0 0 0
          0 0 0 0 0 0
          0 0 0 0 0 0
          0 0 0 0 0 0
          0 0 0 0 0 0
          0 0 0 0 0 0
          0 0 0 0 0 0
          0 0 0 0 0 0
          0 0 0 0 0 0
          0 0 0 0 0 0
          0 0 0 0 0 0
          0 0 0 0 0 0
          0 0 0 0 0 0
          0 0 0 0 0 0
          0 0 0 0 0 0
          0 0 0 0 0 0
          0 0 0 0 0 0
          0 0 0 0 0 0
          0 0 0 0 0 0
          0 0 0 0 0 0
          0 0 0 0 0 0
          0 0 0 0 0 0
          0 0 0 0 0 0
          0 0 0 0 0 0
          0 0 0 0 0 0
          0 0 0 0 0 0
          0 0 0 0 0 0
          0 0 0 0 0 0
          0 0 0 0 0 0
          0 0 0 0 0 0
          0 0 0 0 0 0
          0 0 0 0 0 0
          0 0 0 0 0 0
          0 0 0 0 0 0
          0 0 0 0 0 0
          0 0 0 0 0 0
          0 0 0 0 0 0
          0 0 0 0 0 0
          0 0 0 0 0 0
          0 0 0 0 0 0
          0 0 0 0 0 0
          0 0 0 0 0 0
          0 0 0 0 0 0
          0 0 0 0 0 0
          0 0 0 0 0 0
          0 0 0 0 0 0
          0 0 0 0 0 0
          0 0 0 0 0 0
          0 0 0 0 0 0
          0 0 0 0 0 0
          0 0 0 0 0 0
          0 0 0 0 0 0
          0 0 0 0 0 0
          0 0 0 0 0 0
          0 0 0 0 0 0
          0 0 0 0 0 0
          0 0 0 0 0 0
          0 0 0 0 0 0
          0 0 0 0 0 0
          0 0 0 0 0 0
          0 0 0 0 0 0
          0 0 0 0 0 0
          0 0 0 0 0 0
          0 0 0 0 0 0
          0 0 0 0 0 0
          0 0 0 0 0 0
          0 0 0 0 0 0
          0 0 0 0 0 0
          0 0 0 0 0 0
          0 0 0 0 0 0
          0 0 0 0 0 0
          0 0 0 0 0 0
          0 0 0 0 0 0
          0 0 0 0 0 0
          0 0 0 0 0 0
          0 0 0 0 0 0
          0 0 0 0 0 0
          0 0 0 0 0 0
          0 0 0 0 0 0
          0 0 0 0 0 0
          0 0 0 0 0 0
          0 0 0 0 0 0
          0 0 0 0 0 0
          0 0 0 0 0 0
          0 0 0 0 0 0
          0 0 0 0 0 0
          0 0 0 0 0 0
          0 0 0 0 0 0
          0 0 0 0 0 0
          0 0 0 0 0 0
          0 0 0 0 0 0
          0 0 0 0 0 0
          0 0 0 0 0 0
          0 0 0 0 0 0
          0 0 0 0 0 0
          0 0 0 0 0 0
          0 0 0 0 0 0
          0 0 0 0 0 0
          0 0 0 0 0 0
          0 0 0 0 0 0
          0 0 0 0 0 0
          0 0 0 0 0 0
          0 0 0 0 0 0
          0 0 0 0 0 0
          0 0 0 0 0 0
          0 0 0 0 0 0
          0 0 0 0 0 0
          0 0 0 0 0 0
          0 0 0 0 0 0
          0 0 0 0 0 0
          0 0 0 0 0 0
          0 0 0 0 0 0
          0 0 0 0 0 0
          0 0 0 0 0 0
          0 0 0 0 0 0
          0 0 0 0 0 0
          0 0 0 0 0 0
          0 0 0 0 0 0
          0 0 0 0 0 0
          0 0 0 0 0 0
          0 0 0 0 0 0
          0 0 0 0 0 0
          0 0 0 0 0 0
          0 0 0 0 0 0
          0 0 0 0 0 0
          0 0 0 0 0 0
          0 0 0 0 0 0
          0 0 0 0 0 0
          0 0 0 0 0 0
          0 0 0 0 0 0
          0 0 0 0 0 0
          0 0 0 0 0 0
          0 0 0 0 0 0
          0 0 0 0 0 0
          0 0 0 0 0 0
          0 0 0 0 0 0
          0 0 0 0 0 0
          0 0 0 0 0 0
          0 0 0 0 0 0
          0 0 0 0 0 0
          0 0 0 0 0 0
          0 0 0 0 0 0
          0 0 0 0 0 0
          0 0 0 0 0 0
          0 0 0 0 0 0
          0 0 0 0 0 0
          0 0 0 0 0 0
          0 0 0 0 0 0
          0 0 0 0 0 0
          0 0 0 0 0 0
          0 0 0 0 1 1
          1 1 1 1 1 1
          1 1 1 1 1 1
          1 1 1 1 1 1
          1 1 1 1 1 1
          1 1 1 1 1 1
          1 1 1 1 1 1
          1 1 1 1 1 1
          1 1 1 1 1 1
          1 1 1 1 1 1
          1 1 1 1 1 1
          1 1 1 1 1 1
          1 1 1 1 1 1
          1 1 1 1 1 1
          1 1 1 1 1 1
          1 1 1 1 1 1
          1 1 1 1 1 1
          1 1 1 1 1 1
          1 1 1 1 1 1
          1 1 1 1 1 1
          1 1 1 1 1 1
          1 1 1 1 1 1
          1 1 1 1 1 1
          1 1 1 1 1 1
          1 1 1 1 1 1
          1 1 1 1 1 1
          1 1 1 1 1 1
          1 1 1 1 1 1
          1 1 1 1 1 1
          1 1 1 1 1 1
          1 1 1 1 1 1
          1 1 1 1 1 1
          1 1 1 1 1 1
          1 1 1 1 1 1
          1 1 1 1 1 1
          1 1 1 1 1 1
          1 1 1 1 1 1
          1 1 1 1 1 1
          1 1 1 1 1 1
          1 1 1 1 1 1
          1 1 1 1 1 1
          1 1 1 1 1 1
          1 1 1 1 1 1
          1 1 1 1 1 1
          1 1 1 1 1 1
          1 1 1 1 1 1
          1 1 1 1 1 1
          1 1 1 1 1 1
          1 1 1 1 1 1
          1 1 1 1 1 1
          1 1 1 1 1 1
          1 1 1 1 1 1
          1 1 1 1 1 1
          1 1 1 1 1 1
          1 1 1 1 1 1
          1 1 1 1 1 1
          1 1 1 1 1 1
          1 1 1 1 1 1
          1 1 1 1 1 1
          1 1 1 1 1 1
          1 1 1 1 1 1
          1 1 1 1 1 1
          1 1 1 1 1 1
          1 1 1 1 1 1
          1 1 1 1 1 1
          1 1 1 1 1 1
          1 1 1 1 1 1
          1 1 1 1 1 1
          1 1 1 1 1 1
          1 1 1 1 1 1
          1 1 1 1 1 1
          1 1 1 1 1 1
          1 1 1 1 1 1
          1 1 1 1 1 1
          1 1 1 1 1 1
          1 1 1 1 1 1
          1 1 1 1 1 1
          1 1 1 1 1 2
          2 2 2 2 2 2
          2 2 2 2 2 2
          2 2 2 2 2 2
          2 2 2 2 2 2
          2 2 2 2 2 2
          2 2 2 2 2 2
          2 2 2 2 2 2
          2 2 2 2 2 2
          2 2 2 2 2 2
          2 2 2 2 2 2
          2 2 2 2 2 2
          2 2 2 2 2 2
          2 2 2 2 2 2
          2 2 2 2 2 2
          2 2 2 2 2 2
          2 2 2 2 2 2
          2 2 2 2 2 2
          2 2 2 2 2 2
          2 2 2 2 2 2
          2 2 2 2 2 2
          2 2 2 2 2 2
          2 2 2 2 2 2
          2 2 2 2 2 2
          2 2 2 2 2 2
          2 2 2 2 2 2
          2 2 2 2 2 2
          2 2 2 2 2 2
          2 2 2 2 2 2
          2 2 2 2 2 2
          2 2 2 2 2 2
          2 2 2 2 2 2
          2 2 2 2 2 2
          2 2 2 2 2 2
          2 2 2 2 2 2
          2 2 2 2 2 2
          2 2 2 2 2 2
          2 2 2 2 2 2
          2 2 2 2 2 2
          2 2 2 2 2 2
          2 2 2 2 2 2
          2 2 2 2 2 2
          2 2 2 2 2 2
          2 2 2 2 2 2
          2 2 2 2 2 2
          2 2 2 2 2 2
          2 2 2 2 2 2
          2 2 2 2 2 2
          2 2 2 2 2 2
          2 2 2 2 2 2
          2 2 2 2 2 2
          2 2 2 2 2 2
          2 2 2 2 2 2
          2 2 2 2 2 2
          2 2 2 2 2 2
          2 2 2 2 2 2
          2 2 2 2 2 2
          2 2 2 2 2 2
          2 2 2 2 2 2
          2 2 2 2 2 2
          2 2 2 2 2 2
          2 2 2 2 2 2
          2 2 2 2 2 2
          2 2 2 2 2 2
          2 2 2 2 2 2
          2 2 2 2 2 2
          2 2 2 2 2 2
          2 2 2 2 2 2
          2 2 2 2 2 2
          2 2 2 2 2 2
          2 2 2 2 2 2
          2 2 2 2 2 2
          2 2 2 2 2 2
          2 2 2 2 2 2
          2 2 2 2 2 2
          2 2 2 2 2 2
          2 2 2 2 2 2
          2 2 2 2 2 2
          2 2 2 2 2 2
          2 2 2 2 2 2
          2 2 2 2 2 2
          2 2 2 2 2 2
          2 2 2 2 2 2
          2 2 2 2 2 2
          2 2 2 2 2 2
          2 2 2 2 2 2
          2 2 2 2 2 2
          2 2 2 2 2 2
          2 2 2 2 2 2
          2 2 2 2 2 2
          2 2 2 2 2 2
          2 2 2 2 2 2
          2 2 2 2 2 2
          2 2 2 2 2 2
          2 2 2 2 2 2
          2 2 2 2 2 2
        </DataArray>
      </CellData>
      <Points>
        <DataArray type="Float64" Name="Points" NumberOfComponents="3" format="ascii" RangeMin="5513510.588677457" RangeMax="5519816.8044544095">
          454307.6552734375 5495513.58984375 -4243.8408203125 454251.8662109375 5495269.804199219 -4447.00439453125
          454416.5546875 5495563.672363281 -4430.70068359375 454345.71484375 5495279.921386719 -4648.10302734375
          454456.8671875 5495815.9638671875 -4190.8291015625 454141.36328125 5495220.037109375 -4266.76416015625
          454148.1357421875 5495377.4482421875 -4067.533203125 454032.208984375 5495000 -4332.19287109375
          453928.7080078125 5495000 -4110.2431640625 454132.6376953125 5495000 -4554.638671875
          454232.1708984375 5495000 -4777.22802734375 454477.74609375 5495349.1845703125 -4867.275390625
          454330.5439453125 5495000 -5000 454522.15625 5495561.9482421875 -4688.51904296875
          454595.7099609375 5495608.3505859375 -4814.28564453125 454564.44921875 5495773.662597656 -4515.396484375
          454583.7080078125 5495948.025878906 -4338.3427734375 454687.5419921875 5495826.7099609375 -4767.2646484375
          454702.2431640625 5496015.604003906 -4570.59423828125 454835.3583984375 5496139.5146484375 -4797.76416015625
          454863.046875 5496029.44921875 -5000 454851.291015625 5496344.240722656 -4620.125
          454730.875 5496227.2216796875 -4400.015625 454964.9462890625 5496499.6767578125 -4801.24072265625
          454977.77734375 5496783.548339844 -4595.55419921875 454997.298828125 5496392.044921875 -5000
          455105.9296875 5496763.103027344 -5000 455051.8115234375 5496825.1796875 -4791.4658203125
          455133.8359375 5497134.661621094 -4846.50390625 455071.107421875 5497147.029785156 -4645.3251953125
          455012.423828125 5497179.126953125 -4441.49609375 455095.5361328125 5497503.970214844 -4574.19091796875
          454911.591796875 5496789.541015625 -4378.32275390625 454924.015625 5497029.311035156 -4244.03369140625
          454865.181640625 5496523.7705078125 -4478.0556640625 454777.8154296875 5496469.605957031 -4267.91455078125
          454625.5830078125 5496177.08203125 -4167.15283203125 454680.6552734375 5496427.272949219 -4029.3076171875
          454497.45703125 5496069.254394531 -3970.222900390625 454315.5791015625 5495696.175292969 -4019.37548828125
          454311.6787109375 5495853.8583984375 -3806.101318359375 454136.2158203125 5495521.341308594 -3851.36328125
          454461.9697265625 5496175.938964844 -3752.815673828125 454599.720703125 5496443.3291015625 -3791.73876953125
          454290.5087890625 5496001.1162109375 -3581.79052734375 454452.9970703125 5496337.4296875 -3545.566162109375
          454115.1865234375 5495653.0556640625 -3642.395263671875 454101.4169921875 5495824.826171875 -3410.093017578125
          453934.3974609375 5495517.5732421875 -3458.928466796875 454277.30859375 5496178.564941406 -3342.8125
          454067.43359375 5495959.585449219 -3193.60986328125 454172.134765625 5496210.581542969 -3113.318603515625
          453848.8251953125 5495608.8349609375 -3202.75830078125 453844.2578125 5495708.3193359375 -3090.203857421875
          453749.578125 5495571.3671875 -3081.63720703125 453976.6435546875 5495906.9912109375 -3099.1630859375
          454054.59765625 5496021.794921875 -3104.530517578125 453595.521484375 5495343.099121094 -3067.753662109375
          453586.94140625 5495305.452636719 -3092.503662109375 453560.98828125 5495292.396484375 -3064.04833984375
          453701.416015625 5495292.349121094 -3301.761962890625 453473.4375 5495000 -3229.688720703125
          453801.0908203125 5495260.723144531 -3518.428955078125 453933.1845703125 5495304.479003906 -3717.752685546875
          453592.912109375 5495000 -3448.779541015625 453708.810546875 5495000 -3668.55029296875
          453820.6005859375 5495000 -3889.072998046875 453994.2109375 5495223.770019531 -3943.880859375
          453367.01953125 5495000 -3047.066162109375 453481.0625 5495170.876953125 -3057.064453125
          454242.2578125 5496324.89453125 -3118.2578125 454409.37109375 5496479.902832031 -3295.810791015625
          454276.0400390625 5496387.994140625 -3120.880859375 454412.7890625 5496669.326171875 -3131.0732421875
          454551.9677734375 5496800.078613281 -3332.7890625 454564.87109375 5496622.6025390625 -3519.489501953125
          454424.65625 5496698.172363281 -3132.146484375 454544.6728515625 5496985.936035156 -3189.1357421875
          454633.2958984375 5497203.7626953125 -3304.866455078125 454448.1298828125 5496767.9541015625 -3133.987060546875
          454519.705078125 5496982.860839844 -3138.92431640625 454545.7255859375 5497115.7509765625 -3141.869140625
          454570.482421875 5497253.7265625 -3144.712646484375 454623.3388671875 5497560.277832031 -3216.194091796875
          454582.4609375 5497406.138671875 -3145.8544921875 454705.994140625 5497414.7265625 -3434.042724609375
          454690.7607421875 5497784.383300781 -3388.033203125 454664.4814453125 5496990.16796875 -3483.90185546875
          454746.6591796875 5497187.1953125 -3608.256103515625 454770.013671875 5497619.7236328125 -3587.880615234375
          454670.5 5496748.854003906 -3681.287841796875 454767.6640625 5496990.716308594 -3780.7509765625
          454744.18359375 5496717.8623046875 -3918.847900390625 454847.251953125 5496991.6884765625 -4028.05859375
          454845.2353515625 5497222.0546875 -3899.459228515625 454819.283203125 5496719.957519531 -4150.91455078125
          454923.2216796875 5497355.496582031 -4090.372802734375 454981.4755859375 5497380.38671875 -4263.0830078125
          454973.9072265625 5497769.934082031 -4163.2353515625 455043.4638671875 5497625.37109375 -4386.412109375
          454890.2138671875 5497580.0712890625 -3939.578369140625 454900.0224609375 5497925.529785156 -3953.793212890625
          454815.2109375 5497404.690917969 -3744.3193359375 454833.189453125 5497774.5712890625 -3760.886474609375
          454746.150390625 5497982.827636719 -3547.763671875 454813.2001953125 5498072.330078125 -3732.14794921875
          454753.6240234375 5498319.625 -3614.561767578125 454664.333984375 5498179.661621094 -3375.540283203125
          454856.48046875 5498273.423828125 -3871.4462890625 454800.658203125 5498543.1689453125 -3769.812744140625
          454695.5830078125 5498543.8056640625 -3509.05615234375 454890.1708984375 5498618.9052734375 -4008.1787109375
          454933.705078125 5498218.5869140625 -4068.2138671875 454814.140625 5498858.0595703125 -3855.116455078125
          454888.7841796875 5498995.2333984375 -4062.062744140625 454724.78515625 5498828.6083984375 -3626.397216796875
          454739.5712890625 5499111.9072265625 -3705.49560546875 454646.8681640625 5499124.5546875 -3462.71240234375
          454811.9599609375 5499206.98828125 -3903.052001953125 454745.6396484375 5499474.4853515625 -3768.813232421875
          454801.71875 5499625.330078125 -3935.186767578125 454685.8515625 5499324.568359375 -3587.62060546875
          454683.740234375 5499666.2890625 -3612.782958984375 454629.41015625 5499522.4228515625 -3437.813232421875
          454712.4365234375 5499925.0830078125 -3717.017578125 454634.7431640625 5499953.97265625 -3458.49072265625
          454653.759765625 5500282.044921875 -3524.893798828125 454578.6533203125 5499693.1025390625 -3270.42822265625
          454580.650390625 5499785.4228515625 -3270.66015625 454575.759765625 5499273.181640625 -3275.040283203125
          454560.333984375 5499316.591796875 -3226.215576171875 454635.4052734375 5498851.46484375 -3404.5224609375
          454560.08984375 5498844.4951171875 -3216.14306640625 454609.0546875 5498506.3212890625 -3294.53515625
          454569.0322265625 5498229.19921875 -3161.66796875 454575.166015625 5498106.760253906 -3158.015380859375
          454567.306640625 5498269.7890625 -3163.5322265625 454556.5830078125 5498533.939453125 -3176.126220703125
          454551.603515625 5498799.9482421875 -3191.956298828125 454551.2265625 5498843.1953125 -3194.632568359375
          454552.5419921875 5498899.0615234375 -3198.47021484375 454555.4765625 5499222.1533203125 -3219.451416015625
          454597.48828125 5497908.693359375 -3180.875 454584.2822265625 5497908.590332031 -3151.818115234375
          454591.623046875 5497557.960449219 -3146.06005859375 454585.44921875 5497855.670410156 -3151.00244140625
          454573.9833984375 5499681.2685546875 -3256.450927734375 454576.0146484375 5499706.75390625 -3259.40966796875
          454598.802734375 5500099.7060546875 -3313.626220703125 454602.3544921875 5500171.9814453125 -3325.750732421875
          454615.4658203125 5500403.115234375 -3370.744140625 454629.9814453125 5500624.44140625 -3418.95166015625
          454680.873046875 5500670.8759765625 -3592.44970703125 454711.931640625 5500355.78515625 -3726.239013671875
          454634.556640625 5500679.3173828125 -3431.087158203125 454654.7763671875 5500904.6630859375 -3482.316650390625
          454718.763671875 5501000 -3664.729736328125 454746.89453125 5500716.73828125 -3794.15087890625
          454665.9521484375 5501000 -3503.86328125 454800.75 5501000 -3891.157470703125
          454785.9375 5500496.3193359375 -3926.6162109375 454767.9423828125 5500084.3798828125 -3886.8310546875
          454860.7998046875 5500614.802734375 -4096.69580078125 454893.3828125 5501000 -4116.1240234375
          454850.1875 5500201.6787109375 -4096.0439453125 454932.443359375 5500240.71875 -4285.1357421875
          454839.7607421875 5499873.505859375 -4058.179931640625 454950.3125 5499840.978515625 -4310.490234375
          454903.275390625 5499596.8486328125 -4179.24072265625 455029.580078125 5500011.8544921875 -4492.11376953125
          455080.18359375 5499601.5732421875 -4578.27783203125 455032.4375 5500378.5341796875 -4490.14794921875
          455124.517578125 5500270.0908203125 -4678.87744140625 454949.2451171875 5500633.4619140625 -4291.88818359375
          455045.9716796875 5500692.8701171875 -4485.818359375 454996.873046875 5501000 -4339.41357421875
          455109.390625 5501000 -4561.1494140625 455144.6748046875 5500670.5859375 -4678.65771484375
          455230.7939453125 5501000 -4781.22705078125 455219.3974609375 5500504.2880859375 -4837.50732421875
          455200.7294921875 5500071.861328125 -4838.48046875 455318.4306640625 5500615.375 -5000
          455292.27734375 5500229.54296875 -5000 455358.7099609375 5501000 -5000
          455280.7900390625 5499843.0009765625 -5000 455190.236328125 5499670.9306640625 -4816.32568359375
          455116.611328125 5499896.9013671875 -4670.86669921875 455281.0205078125 5499456.267578125 -5000
          455188.298828125 5499313.9453125 -4795.62744140625 455285.01171875 5499069.54296875 -5000
          455197.5458984375 5498906.7744140625 -4792.7197265625 455109.5458984375 5499176.9130859375 -4609.38818359375
          455288.3212890625 5498682.81640625 -5000 455198.4833984375 5498505.3154296875 -4777.669921875
          455285.8310546875 5498296.091796875 -5000 455116.2451171875 5498726.5791015625 -4586.55078125
          455127.498046875 5498286.4619140625 -4588.63525390625 455200.45703125 5498112.076171875 -4786.57177734375
          455055.63671875 5498396.443359375 -4405.8076171875 455038.697265625 5498714.5234375 -4394.28564453125
          455056.1748046875 5498008.246582031 -4389.53515625 454998.890625 5498141.0693359375 -4235.73095703125
          455116.884765625 5497900.5234375 -4567.26123046875 455169.36328125 5497753.795410156 -4739.74267578125
          455160.521484375 5497448.5263671875 -4792.37353515625 455216.171875 5497791.168457031 -4866.77197265625
          455271.779296875 5497909.629394531 -5000 455240.5791015625 5497524.203125 -5000
          455174.333984375 5497282.454589844 -4904.740234375 455185.421875 5497141.487792969 -5000
          454973.7060546875 5498516.28125 -4206.51708984375 454961.822265625 5498869.822265625 -4223.1923828125
          455038.048828125 5499048.0859375 -4430.1640625 454957.85546875 5499247.013671875 -4264.54833984375
          455010.8046875 5499456.1796875 -4410.8232421875 454876.703125 5499329.8876953125 -4081.337890625
          454704.3232421875 5495676.87109375 -5000 454524.81640625 5495334.3740234375 -5000
          453216.626953125 5500060.2685546875 -1011.3344116210938 453348.501953125 5499777.4404296875 -1178.8533935546875
          453311.34765625 5500141.537109375 -1209.6995849609375 453444.384765625 5499905.51953125 -1364.789306640625
          453192.916015625 5500399.755859375 -1066.5010986328125 453276.625 5499671.1298828125 -1014.745849609375
          453177.34765625 5499882.65234375 -867.4183959960938 453370.15234375 5499382.60546875 -1123.69921875
          453257.853515625 5499421.822265625 -915.6953735351562 453464.078125 5499514.1279296875 -1314.673828125
          453461.064453125 5499107.759765625 -1233.1920166015625 453338.306640625 5499065.8408203125 -1003.4337768554688
          453578.41796875 5499300.375 -1460.5791015625 453583.78125 5498966.9501953125 -1423.4493408203125
          453570.6796875 5499685.4130859375 -1505.2730712890625 453682.0576171875 5499464.7919921875 -1632.1983642578125
          453571.837890625 5500059.0830078125 -1563.02978515625 453699.7353515625 5499822.7861328125 -1690.2940673828125
          453427.861328125 5500273.68359375 -1410.490234375 453580.322265625 5500413.6689453125 -1614.8656005859375
          453302.236328125 5500528.2978515625 -1269.2833251953125 453423.328125 5500660.5322265625 -1448.3798828125
          453280.9921875 5501000 -1278.8587646484375 453442.388671875 5501000 -1489.6302490234375
          453205.6953125 5500732.107421875 -1144.3343505859375 453143.998046875 5501000 -1062.1268310546875
          453093.138671875 5500683.3115234375 -934.6455688476562 453098 5500376.1123046875 -858.8871459960938
          453028.716796875 5501000 -840.9317016601562 453009.5078125 5500580.201171875 -699.3551635742188
          452935.576171875 5501000 -616.0657348632812 452925.765625 5500640.3232421875 -471.7248229980469
          452993.23046875 5500257.935546875 -528.6129760742188 452856.982421875 5501000 -389.2153625488281
          452847.419921875 5500696.6103515625 -247.2998504638672 452780.767578125 5501000 -162.0724639892578
          452897.63671875 5500371.9765625 -277.8205871582031 452796.296875 5500574.009765625 -41.10579299926758
          452955.36328125 5500019.5673828125 -339.222900390625 452847.048828125 5500183.2822265625 -73.77042388916016
          453056.615234375 5499834.3564453125 -561.3234252929688 453084.7578125 5500093.283203125 -720.013916015625
          453005.41796875 5499632.193359375 -391.3598327636719 452904.83984375 5499817.51953125 -163.61578369140625
          453111.576171875 5499400.8818359375 -597.8093872070312 453039.294921875 5499255.90234375 -425.19915771484375
          453157.96875 5499627.515625 -749.8547973632812 453214.67578125 5499197.5517578125 -783.8968505859375
          453261.912109375 5498833.4228515625 -826.4722900390625 453147.060546875 5498997.4052734375 -623.3522338867188
          453380.78515625 5498741.951171875 -1035.3916015625 453293.791015625 5498475.3251953125 -853.8314819335938
          453478.181640625 5498750.548828125 -1211.60009765625 453411.244140625 5498386.482421875 -1055.3883056640625
          453585.203125 5498599.3974609375 -1381.3065185546875 453687.765625 5498765.4287109375 -1576.2728271484375
          453516.91796875 5498334.2802734375 -1236.3389892578125 453623.7109375 5498209.57421875 -1413.872314453125
          453561.9609375 5497924.45703125 -1308.9813232421875 453706.97265625 5498419.021484375 -1574.34423828125
          453731.8974609375 5498086.076171875 -1595.3541259765625 453687.3779296875 5497821.569824219 -1523.0927734375
          453831.4609375 5498190.093261719 -1771.1141357421875 453826.1845703125 5497789.138183594 -1758.6124267578125
          453805.0546875 5498570.7236328125 -1754.8270263671875 453916.3466796875 5498458.2060546875 -1935.712890625
          453943.8056640625 5498032.255859375 -1954.1568603515625 453886.6943359375 5498881.23828125 -1907.0145263671875
          453786.6572265625 5498986.0439453125 -1753.2052001953125 453995.8447265625 5498709.22265625 -2081.663330078125
          454032.541015625 5498274.626953125 -2122.185791015625 453989.134765625 5499121.748046875 -2065.548828125
          454090.126953125 5498936.4970703125 -2235.7880859375 453889.560546875 5499308.5615234375 -1913.793701171875
          454032.2490234375 5499548.2548828125 -2104.4892578125 453936.0302734375 5499755.6474609375 -1971.2274169921875
          454104.3056640625 5499320.5673828125 -2226.852783203125 454183.017578125 5499736.130859375 -2298.6318359375
          454078.3583984375 5499972.3740234375 -2143.73095703125 454217.4052734375 5499493.9482421875 -2387.020263671875
          454199.302734375 5499159.5263671875 -2402.783203125 454322.8974609375 5499806.2021484375 -2525.9384765625
          454311.1982421875 5499420.115234375 -2570.91064453125 454229.27734375 5500097.576171875 -2350.676025390625
          454337.3671875 5500210.0869140625 -2541.301025390625 454083.5087890625 5500360.5 -2184.672607421875
          453925.8037109375 5500239.7109375 -1982.888916015625 454211.0947265625 5500456.3720703125 -2376.354248046875
          454080.8759765625 5500707.4384765625 -2235.043212890625 453930.359375 5500655.1669921875 -2038.70849609375
          454209.57421875 5500787.98828125 -2432.41162109375 454310.2314453125 5500578.236328125 -2560.159423828125
          454114.8623046875 5501000 -2325.097900390625 454254.2919921875 5501000 -2541.339599609375
          453959.072265625 5501000 -2112.8369140625 453790.4228515625 5501000 -1904.0633544921875
          453766.89453125 5500563.2841796875 -1840.4254150390625 453604.263671875 5500738.849609375 -1670.8084716796875
          453729.859375 5500206.6162109375 -1763.266357421875 453834.541015625 5499937.626953125 -1857.588623046875
          453799.61328125 5499504.580078125 -1795.79150390625 453711.3779296875 5499149.1953125 -1648.1939697265625
          453615.798828125 5501000 -1697.022216796875 454338.009765625 5500782.5166015625 -2649.656494140625
          454375.1865234375 5501000 -2761.473388671875 454426.7509765625 5500720.701171875 -2820.139404296875
          454477.8916015625 5501000 -2984.882568359375 454401.8466796875 5500424.1630859375 -2710.623046875
          454487.6650390625 5500528.2626953125 -2935.340576171875 454418.7607421875 5499988.283203125 -2712.067626953125
          454472.5849609375 5500197.7431640625 -2849.393798828125 454410.6513671875 5499612.388671875 -2759.685791015625
          454483.2783203125 5499831.6298828125 -2925.03955078125 454498.615234375 5499490.27734375 -3030.86962890625
          454531.0205078125 5500192.751953125 -3044.689453125 454543.63671875 5499874.2421875 -3124.22265625
          454547.88671875 5500581.9931640625 -3125.18505859375 454600.3310546875 5500450.962890625 -3309.823974609375
          454564.5498046875 5501000 -3210.676025390625 454626.0625 5500680.865234375 -3401.4931640625
          454644.1337890625 5501000 -3437.405029296875 454654.7763671875 5500904.6630859375 -3482.316650390625
          454634.556640625 5500679.3173828125 -3431.087158203125 454665.9521484375 5501000 -3503.86328125
          454629.9814453125 5500624.44140625 -3418.95166015625 454615.4658203125 5500403.115234375 -3370.744140625
          454588.365234375 5500142.029296875 -3271.5556640625 454602.3544921875 5500171.9814453125 -3325.750732421875
          454598.802734375 5500099.7060546875 -3313.626220703125 454580.650390625 5499785.4228515625 -3270.66015625
          454576.0146484375 5499706.75390625 -3259.40966796875 454573.9833984375 5499681.2685546875 -3256.450927734375
          454560.333984375 5499316.591796875 -3226.215576171875 454520.14453125 5499133.2626953125 -3122.61669921875
          454555.4765625 5499222.1533203125 -3219.451416015625 454449.7265625 5499163.708984375 -2937.003173828125
          454390.841796875 5499266.51171875 -2776.700439453125 454463.68359375 5498830.357421875 -2982.18505859375
          454552.5419921875 5498899.0615234375 -3198.47021484375 454372.466796875 5498878.98046875 -2774.22265625
          454387.4970703125 5498506.1142578125 -2799.849365234375 454288.0244140625 5499037.193359375 -2585.024169921875
          454281.0107421875 5498645.48046875 -2590.39453125 454187.3232421875 5498792.2646484375 -2410.873046875
          454198.474609375 5498416.42578125 -2426.069091796875 454101.3037109375 5498529.728515625 -2258.272216796875
          454290.626953125 5498247.0224609375 -2585.741943359375 454163.89453125 5498101.4130859375 -2337.84228515625
          454296.2783203125 5497884.415527344 -2560.9248046875 454189.1669921875 5497689.9267578125 -2363.12353515625
          454398.013671875 5498076.515625 -2777.77783203125 454412.5693359375 5497688.6103515625 -2769.2080078125
          454466.6044921875 5498281.064453125 -2942.690673828125 454504.533203125 5497907.968261719 -2976.346923828125
          454506.0009765625 5498560.5625 -3061.980712890625 454560.8896484375 5498233.431640625 -3143.3955078125
          454551.2265625 5498843.1953125 -3194.632568359375 454551.603515625 5498799.9482421875 -3191.956298828125
          454556.5830078125 5498533.939453125 -3176.126220703125 454567.306640625 5498269.7890625 -3163.5322265625
          454569.0322265625 5498229.19921875 -3161.66796875 454575.166015625 5498106.760253906 -3158.015380859375
          454584.2822265625 5497908.590332031 -3151.818115234375 454516.6123046875 5497552.479980469 -2980.189208984375
          454585.44921875 5497855.670410156 -3151.00244140625 454591.623046875 5497557.960449219 -3146.06005859375
          454546.99609375 5497272.4091796875 -3084.82861328125 454582.4609375 5497406.138671875 -3145.8544921875
          454429.5546875 5497171.029296875 -2874.64794921875 454379.037109375 5497343.0244140625 -2735.080078125