<?xml version="1.0"?>
<VTKFile type="UnstructuredGrid" version="1.0" byte_order="LittleEndian" header_type="UInt64">
  <UnstructuredGrid>
    <Piece NumberOfPoints="1272" NumberOfCells="2152">
      <PointData>
      </PointData>
      <CellData>
        <DataArray type="Int32" Name="MaterialIDs" format="ascii" RangeMin="0" RangeMax="3">
          3 0 0 0 0 0
          0 0 0 0 0 0
          0 0 0 0 0 0
          0 0 0 0 0 0
          0 0 0 0 0 0
          0 0 0 0 0 0
          0 0 0 0 0 0
          0 0 0 0 0 0
          0 0 0 0 0 0
          0 0 0 0 0 0
          0 0 0 0 0 0
          0 0 0 0 0 0
          0 0 0 0 0 0
          0 0 0 0 0 0
          0 0 0 0 0 0
          0 0 0 0 0 0
          0 0 0 0 0 0
          0 0 0 0 0 0
          0 0 0 0 0 0
          0 0 0 0 0 0
          0 0 0 0 0 0
          0 0 0 0 0 0
          0 0 0 0 0 0
          0 0 0 0 0 0
          0 0 0 0 0 0
          0 0 0 0 0 0
          0 0 0 0 0 0
          0 0 0 0 0 0
          0 0 0 0 0 0
          0 0 0 0 0 0
          0 0 0 0 0 0
          0 0 0 0 0 0
          0 0 0 0 0 0
          0 0 0 0 0 0
          0 0 0 0 0 0
          0 0 0 0 0 0
          0 0 0 0 0 0
          0 0 0 0 0 0
          0 0 0 0 0 0
          0 0 0 0 0 0
          0 0 0 0 0 0
          0 0 0 0 0 0
          0 0 0 0 0 0
          0 0 0 0 0 0
          0 0 0 0 0 0
          0 0 0 0 0 0
          0 0 0 0 0 0
          0 0 0 0 0 0
          0 0 0 0 0 0
          0 0 0 0 0 0
          0 0 0 0 0 0
          0 0 0 0 0 0
          0 0 0 0 0 0
          0 0 0 0 0 0
          0 0 0 0 0 0
          0 0 0 0 0 0
          0 0 0 0 0 0
          0 0 0 0 0 0
          0 0 0 0 0 0
          0 0 0 0 0 0
          0 0 0 0 0 0
          0 0 0 0 0 0
          0 0 0 0 0 0
          0 0 0 0 0 0
          0 0 0 0 0 0
          0 0 0 0 0 0
          0 0 0 0 0 0
          0 0 0 0 0 0
          0 0 0 0 0 0
          0 0 0 0 0 0
          0 0 0 0 0 0
          0 0 0 0 0 0
          0 0 0 0 0 0
          0 0 0 0 0 0
          0 0 0 0 0 0
          0 0 0 0 0 0
          0 0 0 0 0 0
          0 0 0 0 0 0
          0 0 0 0 0 0
          0 0 0 0 0 0
          0 0 0 0 0 0
          0 0 0 0 0 0
          0 0 0 0 0 0
          0 0 0 0 0 0
          0 0 0 0 0 0
          0 0 0 0 0 0
          0 0 0 0 0 0
          0 0 0 0 0 0
          0 0 0 0 0 0
          0 0 0 0 0 0
          0 0 0 0 0 0
          0 0 0 0 0 0
          0 0 0 0 0 0
          0 0 0 0 0 0
          0 0 0 0 0 0
          0 0 0 0 0 0
          0 0 0 0 0 0
          0 0 0 0 0 0
          0 0 0 0 0 0
          0 0 0 0 0 0
          0 0 0 0 0 0
          0 0 0 0 0 0
          0 0 0 0 0 0
          0 0 0 0 0 0
          0 0 0 0 0 0
          0 0 0 0 0 0
          0 0 0 0 0 0
          0 0 0 0 0 0
          0 0 0 0 0 0
          0 0 0 0 0 0
          0 0 0 0 0 0
          0 0 0 0 0 0
          0 0 0 0 0 0
          0 0 0 0 0 0
          0 0 0 0 0 0
          0 0 0 0 0 0
          0 0 0 0 0 0
          0 0 0 0 0 0
          0 0 0 0 0 0
          0 0 0 0 0 0
          0 0 0 0 0 0
          0 0 0 0 0 0
          0 0 0 0 0 0
          0 0 0 0 0 0
          0 0 0 0 0 0
          0 0 0 0 0 0
          0 0 0 0 0 0
          0 0 0 0 0 0
          0 0 0 0 0 0
          0 0 0 0 0 0
          0 0 0 0 0 0
          0 0 0 0 0 0
          0 0 0 0 0 0
          0 0 0 0 0 0
          0 0 0 0 0 0
          0 0 0 0 0 0
          0 0 0 0 0 0
          0 0 0 0 0 0
          0 0 0 0 0 0
          0 0 0 0 0 0
          0 0 0 0 0 0
          0 0 0 0 0 0
          0 0 0 0 0 0
          0 0 0 0 0 0
          0 0 0 0 0 0
          0 0 0 0 0 0
          0 0 0 0 0 0
          0 0 0 0 0 0
          0 0 0 0 0 0
          0 0 0 0 0 0
          0 0 0 0 0 0
          0 0 0 0 0 0
          0 0 0 0 0 0
          0 0 0 0 0 0
          0 0 0 0 0 0
          0 0 0 0 0 0
          0 0 0 0 0 0
          0 0 0 0 0 0
          0 0 0 0 0 0
          0 0 0 0 0 0
          0 0 0 0 0 0
          0 0 0 0 0 0
          0 0 0 0 0 0
          0 0 0 0 0 0
          0 0 0 0 0 0
          0 0 0 0 0 0
          0 0 0 0 0 0
          0 0 0 0 0 0
          0 0 0 0 0 0
          0 0 0 0 0 0
          0 0 0 0 0 0
          0 0 0 0 0 0
          0 0 0 0 0 0
          0 0 0 0 0 0
          0 0 0 0 0 0
          0 0 0 0 0 0
          0 0 0 0 0 0
          0 0 0 1 1 1
          1 1 1 1 1 1
          1 1 1 1 1 1
          1 1 1 1 1 1
          1 1 1 1 1 1
          1 1 1 1 1 1
          1 1 1 1 1 1
          1 1 1 1 1 1
          1 1 1 1 1 1
          1 1 1 1 1 1
          1 1 1 1 1 1
          1 1 1 1 1 1
          1 1 1 1 1 1
          1 1 1 1 1 1
          1 1 1 1 1 1
          1 1 1 1 1 1
          1 1 1 1 1 1
          1 1 1 1 1 1
          1 1 1 1 1 1
          1 1 1 1 1 1
          1 1 1 1 1 1
          1 1 1 1 1 1
          1 1 1 1 1 1
          1 1 1 1 1 1
          1 1 1 1 1 1
          1 1 1 1 1 1
          1 1 1 1 1 1
          1 1 1 1 1 1
          1 1 1 1 1 1
          1 1 1 1 1 1
          1 1 1 1 1 1
          1 1 1 1 1 1
          1 1 1 1 1 1
          1 1 1 1 1 1
          1 1 1 1 1 1
          1 1 1 1 1 1
          1 1 1 1 1 1
          1 1 1 1 1 1
          1 1 1 1 1 1
          1 1 1 1 1 1
          1 1 1 1 1 1
          1 1 1 1 1 1
          1 1 1 1 1 1
          1 1 1 1 1 1
          1 1 1 1 1 1
          1 1 1 1 1 1
          1 1 1 1 1 1
          1 1 1 1 1 1
          1 1 1 1 1 1
          1 1 1 1 1 1
          1 1 1 1 1 1
          1 1 1 1 1 1
          1 1 1 1 1 1
          1 1 1 1 1 1
          1 1 1 1 1 1
          1 1 1 1 1 1
          1 1 1 1 1 1
          1 1 1 1 1 1
          1 1 1 1 1 1
          1 1 1 1 1 1
          1 1 1 1 1 1
          1 1 1 1 1 1
          1 1 1 1 1 1
          1 1 1 1 1 1
          1 1 1 1 1 1
          1 1 1 1 1 1
          1 1 1 1 1 1
          1 1 1 1 1 1
          1 1 1 1 1 1
          1 1 1 1 1 1
          1 1 1 1 1 1
          1 1 1 1 1 1
          1 1 1 1 1 1
          1 1 1 1 1 1
          1 1 1 1 1 1
          1 1 1 1 1 1
          1 1 1 1 1 1
          1 1 1 1 1 1
          1 1 1 1 1 1
          1 1 1 1 1 1
          1 1 1 1 1 1
          1 1 1 1 1 1
          1 1 1 1 1 1
          1 1 1 1 1 1
          1 1 1 1 1 1
          1 1 1 1 1 1
          1 1 1 1 1 1
          1 1 1 1 1 1
          1 1 1 1 1 1
          1 1 1 1 1 1
          1 1 1 1 1 1
          1 1 1 1 1 1
          1 1 1 1 1 1
          1 1 1 1 1 1
          1 1 1 1 1 1
          1 1 1 1 1 1
          1 1 1 1 1 1
          1 1 1 1 1 1
          1 1 1 1 1 1
          1 1 1 1 1 1
          1 1 1 1 1 1
          1 1 1 1 1 1
          1 1 1 1 1 1
          1 1 1 1 1 1
          1 1 1 1 1 1
          1 1 1 1 1 1
          1 1 1 1 1 1
          1 1 1 1 1 1
          1 1 1 1 1 1
          1 1 1 1 1 1
          1 1 1 1 1 1
          1 1 1 1 1 1
          1 1 1 1 1 1
          1 1 1 1 1 1
          1 1 1 1 1 1
          1 1 1 1 1 1
          1 1 1 1 1 1
          1 1 1 1 1 1
          1 1 1 1 1 1
          1 1 1 1 1 1
          1 1 1 1 1 1
          1 1 1 1 1 1
          1 1 1 1 1 1
          1 1 1 1 1 1
          1 1 1 1 1 1
          1 1 1 1 1 1
          1 1 1 1 1 1
          1 1 1 1 1 1
          1 1 1 1 1 1
          1 1 1 1 1 1
          1 1 1 1 1 1
          1 1 1 1 1 1
          1 1 1 1 1 1
          1 1 1 1 1 1
          1 1 1 1 1 1
          1 1 1 1 1 1
          1 1 1 1 1 1
          1 1 1 1 1 1
          1 1 1 1 1 1
          1 1 1 1 1 1
          1 1 1 1 1 1
          1 1 1 1 1 1
          1 1 1 1 1 1
          1 1 1 1 1 1
          1 1 1 1 1 1
          1 1 1 1 1 1
          1 1 1 1 1 1
          1 1 1 1 1 1
          1 1 1 1 1 1
          1 1 1 1 1 1
          1 1 1 1 1 1
          1 1 1 1 1 1
          1 1 1 1 1 1
          1 1 1 1 1 1
          1 1 1 1 1 1
          1 1 1 1 1 1
          1 1 1 1 1 1
          1 1 1 1 1 1
          1 1 1 1 1 1
          1 1 1 1 1 1
          1 1 1 1 1 1
          1 1 1 1 1 1
          1 1 1 1 1 1
          1 1 1 1 1 1
          1 1 1 1 1 1
          1 1 1 1 1 1
          1 1 1 1 1 1
          2 2 2 2 2 2
          2 2 2 2 2 2
          2 2 2 2 2 2
          2 2 2 2 2 2
          2 2 2 2 2 2
          2 2 2 2 2 2
          2 2 2 2 2 2
          2 2 2 2 2 2
          2 2 2 2 2 2
          2 2 2 2 2 2
          2 2 2 2 2 2
          2 2 2 2 2 2
          2 2 2 2 2 2
          2 2 2 2 2 2
          2 2 2 2
        </DataArray>
      </CellData>
      <Points>
        <DataArray type="Float64" Name="Points" NumberOfComponents="3" format="ascii" RangeMin="5515190.975274265" RangeMax="5521314.284679055">
          469442.13555908203 5500703.5947265625 -4681.9296875 469528.02130126953 5501000 -4571.9228515625
          469365.82440185547 5501000 -4785.9189453125 469292.6663208008 5500784.880859375 -4878.98486328125
          469609.08279418945 5500660.99609375 -4465.00830078125 469518.216796875 5500363.3525390625 -4600.32470703125
          469691.81799316406 5501000 -4358.359375 469772.215133667 5500572.029296875 -4255.87646484375
          469684.643951416 5500275.142578125 -4391.34326171875 469856.41679382324 5501000 -4145.0126953125
          469890.7366256714 5500745.9951171875 -4098.9658203125 469959.0033340454 5500414.40625 -4026.7744140625
          470021.6871147156 5501000 -3931.85009765625 470069.1235046387 5500688.3671875 -3871.10302734375
          470109.65478515625 5501000 -3818.3251953125 470110.11262512207 5500796.8427734375 -3818.04150390625
          470110.7755203247 5500685.158203125 -3817.88916015625 470128.06663513184 5500348.65234375 -3815.570556640625
          470128.2986907959 5500349.47265625 -3815.224609375 470128.34872436523 5500348.6591796875 -3815.211181640625
          470128.44564819336 5500347.8134765625 -3815.19140625 470187.1037902832 5499873.951171875 -3811.861572265625
          470043.5638961792 5500056.8349609375 -3961.8349609375 470191.9311828613 5499892.7451171875 -3802.291748046875
          470196.1707305908 5499868.7724609375 -3801.57568359375 470208.9588470459 5499813.193359375 -3800.096435546875
          470098.76065063477 5499679.3349609375 -3971.7119140625 470260.2358093262 5499587.90625 -3793.597412109375
          470226.2719116211 5499397.0732421875 -3900.20654296875 470059.3432044983 5499415.7861328125 -4106.29638671875
          470278.5425109863 5499521.3994140625 -3791.8837890625 470369.15731811523 5499225.8330078125 -3785.64208984375
          470258.9065551758 5499074.2021484375 -3992.689208984375 470388.29931640625 5499168.4130859375 -3784.7109375
          470526.14862060547 5498814.5029296875 -3781.519287109375 470407.2127380371 5498739.9150390625 -3978.56005859375
          470228.0695800781 5498792.361328125 -4182.505859375 470531.71423339844 5498801.04296875 -3781.485107421875
          470634.5573120117 5498467.294921875 -3853.19775390625 470483.2509765625 5498463.5595703125 -4051.817626953125
          470547.29766845703 5498768.9072265625 -3781.099853515625 470704.0554199219 5498448.0693359375 -3775.280517578125
          470834.70166015625 5498124.980957031 -3829.3408203125 470679.9771118164 5498152.538574219 -4013.231689453125
          470824.39447021484 5498230.212890625 -3769.347900390625 470875.58654785156 5498138.089355469 -3766.412109375
          471014.9048461914 5497847.97265625 -3797.1630859375 470874.97833251953 5497824.546386719 -4001.64794921875
          471010.35900878906 5497910.284667969 -3757.45703125 471047.5632324219 5497846.282714844 -3754.782958984375
          471189.44006347656 5497575.553222656 -3768.640869140625 471065.94189453125 5497531.094238281 -3970.708251953125
          471185.18029785156 5497617.5537109375 -3742.765625 471223.11950683594 5497553.4794921875 -3738.991943359375
          471296.51110839844 5497285.967285156 -3838.73974609375 471338.58923339844 5497358.226074219 -3726.91064453125
          471425.03173828125 5497205.277832031 -3717.290283203125 471442.5655517578 5496995.757324219 -3846.684326171875
          471242.9482421875 5497059.938964844 -4083.38671875 471494.61975097656 5497082.7529296875 -3709.497802734375
          471627.75549316406 5496800.349121094 -3715.03564453125 471564.79736328125 5496645.689941406 -3915.026123046875
          471610.07470703125 5496861.114746094 -3697.880126953125 471638.2451171875 5496806.578613281 -3695.04638671875
          471674.0743408203 5496728.55859375 -3692.351806640625 471731.7537841797 5496431.943359375 -3804.07763671875
          471785.13818359375 5496487.7109375 -3684.371337890625 471903.36083984375 5496198.0029296875 -3677.732177734375
          471816.0627441406 5496082.704589844 -3889.329345703125 471665.9270019531 5496289.865722656 -3996.109619140625
          471917.75048828125 5496162.759277344 -3676.9638671875 471983.3977050781 5495859.5341796875 -3746.61279296875
          471872.69958496094 5495761.319824219 -3982.821533203125 471934.9250488281 5496116.049316406 -3676.183349609375
          472025.2307128906 5495866.37890625 -3671.924072265625 472078.8046875 5495707.225097656 -3669.61328125
          472038.953125 5495532.416503906 -3832.681640625 472112.18603515625 5495607.4921875 -3668.1708984375
          472209.17529296875 5495287.511230469 -3672.952880859375 472194.3562011719 5495350.722167969 -3664.61962890625
          472094.1330566406 5495233.479980469 -3899.13671875 472262.57080078125 5495000 -3728.816162109375
          471951.89611816406 5495376.678222656 -4062.064453125 472138.3645019531 5495000 -3942.490966796875
          472011.6931152344 5495000 -4155.65185546875 471843.50329589844 5495260.3212890625 -4297.41259765625
          471792.7763671875 5495607.1611328125 -4195.142578125 471880.5743408203 5495000 -4367.8603515625
          471702.16662597656 5495417.861816406 -4439.7841796875 471746.63732910156 5495000 -4579.44677734375
          471650.1297607422 5495703.447753906 -4366.2412109375 471493.5174560547 5495744.610839844 -4580.99755859375
          471675.1677246094 5496012.322753906 -4151.69287109375 471526.8985595703 5495986.258300781 -4392.70458984375
          471470.7843017578 5496284.016113281 -4295.67431640625 471370.34436035156 5496136.744628906 -4535.2587890625
          471309.49755859375 5495923.684082031 -4749.017578125 471280.49560546875 5496492.4931640625 -4434.96044921875
          471200.8850097656 5496339.259277344 -4649.25537109375 471337.36291503906 5496684.6083984375 -4220.49658203125
          471520.1877441406 5496447.685058594 -4114.341796875 471166.66650390625 5496843.095214844 -4351.52734375
          471067.3497314453 5496715.922363281 -4579.078125 470934.5928955078 5497044.830566406 -4521.81640625
          471043.22705078125 5497129.728515625 -4308.8955078125 470833.0900878906 5496939.903808594 -4737.71142578125
          470687.09729003906 5497316.99609375 -4648.70166015625 471021.6187133789 5496536.642578125 -4768.08935546875
          470869.22424316406 5496703.701660156 -4860.712890625 471134.6247558594 5496172.871582031 -4848.681640625
          470908.77069091797 5496422.195800781 -5000 471162.5185546875 5496015.005371094 -4901.60009765625
          471068.67578125 5496074.9326171875 -5000 471214.3859863281 5495721.45703125 -5000
          471426.7478027344 5495516.468261719 -4804.70068359375 471347.2325439453 5495362.955078125 -5000
          471469.70666503906 5495193.1982421875 -4901.880859375 471609.09326171875 5495000 -4790.21240234375
          471478.4639892578 5495125.517089844 -4922.0849609375 471467.3835449219 5495000 -5000
          471597.78369140625 5495382.067871094 -4619.8603515625 470733.9765625 5496762.221191406 -5000
          470787.5238647461 5496861.1142578125 -4853.96435546875 470608.1393432617 5497206.735839844 -4839.14794921875
          470549.6812133789 5497097.2001953125 -5000 470357.6526184082 5497427.8203125 -5000
          470414.1045227051 5497617.695800781 -4776.91943359375 470162.6658477783 5497756.7099609375 -5000
          470194.19398498535 5497962.502441406 -4797.763671875 469969.68330192566 5498086.7763671875 -5000
          470365.9014892578 5497961.132324219 -4572.86328125 470547.95196533203 5497664.994628906 -4562.15625
          470171.8327484131 5498230.1806640625 -4626.4892578125 469982.6781768799 5498312.619140625 -4815.78515625
          470325.46743774414 5498260.841796875 -4401.8955078125 470154.8293457031 5498523.8369140625 -4442.97802734375
          470505.41552734375 5497974.823730469 -4377.70361328125 470485.89807128906 5498241.484375 -4203.748046875
          470675.31787109375 5497689.775878906 -4372.85693359375 470664.7297973633 5497945.206542969 -4189.15478515625
          470796.4885253906 5497372.7431640625 -4458.591796875 470899.7058105469 5497423.348144531 -4279.486328125
          470841.98431396484 5497660.2548828125 -4173.0751953125 471082.9893798828 5497324.2353515625 -4105.74951171875
          470302.3768310547 5498526.3115234375 -4247.72900390625 470028.82817459106 5498844.5771484375 -4411.60302734375
          469984.61865997314 5498578.26953125 -4631.23681640625 470044.9477958679 5499135.09375 -4240.93505859375
          469859.80924987793 5499210.0048828125 -4448.27685546875 469884.5562286377 5499520.087890625 -4293.7109375
          469936.33864212036 5499821.5400390625 -4144.88232421875 469718.9450378418 5499590.4970703125 -4487.7529296875
          469771.4371948242 5499890.998046875 -4339.6064453125 469678.72634887695 5499299.4169921875 -4645.73681640625
          469830.1406555176 5498929.296875 -4622.68994140625 469553.39923095703 5499690.61328125 -4674.447265625
          469513.7275695801 5499398.9609375 -4826.4873046875 469604.8194885254 5499984.3037109375 -4538.248046875
          469428.2907104492 5500091.1357421875 -4750.89794921875 469394.19842529297 5499802.2236328125 -4855.49169921875
          469345.3547973633 5500435.2978515625 -4820.4169921875 469224.1089477539 5500236.0087890625 -5000
          469336.38983154297 5499949.6552734375 -4904.60595703125 469202.73614501953 5500617.6923828125 -5000
          469203.94549560547 5501000 -5000 469275.27520751953 5499857.26953125 -5000
          469360.5347290039 5499484.681640625 -5000 469475.2150878906 5499120.046875 -5000
          469643.5875854492 5499028.380859375 -4818.46484375 469618.4973754883 5498765.6865234375 -5000
          469797.5511779785 5498671.8994140625 -4818.1142578125 469785.9689025879 5498422.0732421875 -5000
          469853.9842071533 5500182.32421875 -4182.67431640625 471398.841796875 5496813.947265625 -4038.907470703125
          472219.69091796875 5495270.21875 -3663.427490234375 472212.24658203125 5495294.605957031 -3663.810546875
          472301.97021484375 5495000 -3659.309326171875 471275.240234375 5500789.279296875 -2332.056396484375
          471350.4395751953 5501000 -2228.361083984375 471183.7692871094 5501000 -2441.13818359375
          471102.18127441406 5500788.2880859375 -2552.364501953125 471423.2116699219 5500726.048828125 -2147.034912109375
          471324.9930419922 5500458.05078125 -2292.778564453125 471517.3631591797 5501000 -2015.6541748046875
          471577.35681152344 5500711.955078125 -1953.20654296875 471684.89416503906 5501000 -1803.1163330078125
          471471.60192871094 5500421.06640625 -2111.43505859375 471636.75439453125 5500428.8544921875 -1901.897216796875
          471542.3078613281 5500142.36328125 -2059.57666015625 471742.3312988281 5500715.666015625 -1744.6126708984375
          471806.05798339844 5500431.060546875 -1687.51806640625 471712.74353027344 5500148.041015625 -1843.8653564453125
          471910.03869628906 5500709.505859375 -1532.0718994140625 471852.38916015625 5501000 -1590.568115234375
          471983.2706298828 5500396.51171875 -1467.2037353515625 471892.6691894531 5500153.9326171875 -1614.8009033203125
          472073.12255859375 5500706.03125 -1325.86376953125 472019.7393798828 5501000 -1377.9796142578125
          472143.2258300781 5500383.755859375 -1266.95703125 472086.4677734375 5500032.07421875 -1390.3626708984375
          472228.7702636719 5500702.76953125 -1130.1890869140625 472306.0686035156 5500374.8046875 -1063.2763671875
          472187.83447265625 5501000 -1165.59912109375 472356.4514160156 5501000 -953.3646850585938
          472373.2844238281 5500681.8671875 -950.4666748046875 472515.4543457031 5500685.8359375 -772.1799926757812
          472477.376953125 5500364.3671875 -849.6591796875 472410.2741699219 5500055.7685546875 -979.1134643554688
          472664.4709472656 5500343.1923828125 -618.22607421875 472583.9455566406 5500045.4873046875 -763.1166381835938
          472657.0900878906 5500696.572265625 -594.3331298828125 472824.3876953125 5500444.783203125 -407.1361389160156
          472525.4455566406 5501000 -741.2365112304688 472694.16259765625 5501000 -529.0303344726562
          472790.20458984375 5500736.3388671875 -424.31353759765625 472862.6701660156 5501000 -316.765380859375
          472935.39697265625 5500717.2314453125 -243.6597900390625 473031.14599609375 5501000 -104.49174499511719
          472994.43701171875 5500454.7841796875 -192.7979278564453 472855.1535644531 5500141.279296875 -407.97161865234375
          473110.0368652344 5500654.31640625 -28.151018142700195 473132.19873046875 5500250.3525390625 -44.87459182739258
          473191.7373046875 5501000 99.73745727539062 473192.7834472656 5500978.234375 99.5576400756836
          473205.2019042969 5500717.978515625 97.4718017578125 473224.4011230469 5500458.5595703125 96.14261627197266
          473232.9306640625 5500360.365234375 96.09234619140625 473266.642578125 5500064.21484375 96.65233612060547
          473157.8601074219 5499886.5888671875 -70.67040252685547 472990.7365722656 5500068.185546875 -249.55227661132812
          473274.2365722656 5500005.326171875 96.8635482788086 473254.07177734375 5499603.3212890625 -9.016043663024902
          473072.0153808594 5499641.0595703125 -230.79461669921875 473285.74560546875 5499935.564453125 97.01008605957031
          473335.271484375 5499620.48828125 97.93290710449219 473385.1550292969 5499376.37109375 98.5483169555664
          473262.6345214844 5499307.08984375 -78.22025299072266 473401.9626464844 5499297.259765625 98.7926025390625
          473128.20703125 5499310.2001953125 -249.17515563964844 472982.1374511719 5499353.083984375 -423.7716979980469
          473247.77880859375 5498973.8427734375 -209.19821166992188 473389.0100097656 5498963.6376953125 -26.89567756652832
          473099.55859375 5499036.642578125 -380.0308532714844 473165.7282714844 5498736.2802734375 -413.1570129394531
          472965.2658691406 5499010.0234375 -566.2195434570312 473338.0686035156 5498626.783203125 -227.52186584472656
          473247.2463378906 5498396.107421875 -456.3438415527344 473058.9177246094 5498615.3779296875 -611.4410400390625
          473406.9099121094 5498209.966796875 -320.3236389160156 473293.23046875 5498039.1845703125 -566.2447509765625
          473482.79638671875 5498354.546875 -146.20816040039062 473502.22705078125 5498618.080078125 -6.95505428314209
          473593.6896972656 5497987.5302734375 -154.60931396484375 473632.9609375 5498229.0576171875 10.288999557495117
          473488.24609375 5497875.05078125 -362.47784423828125 473684.1076660156 5497594.4345703125 -202.2855682373047
          473412.3935546875 5497683.76171875 -565.8790893554688 473246.35546875 5497752.392578125 -773.747314453125
          473571.90869140625 5497547.9140625 -392.8360900878906 473527.9240722656 5497318.4208984375 -564.4885864257812
          473678.8371582031 5497236.906738281 -372.10101318359375 473368.0153808594 5497446.986328125 -742.909423828125
          473456.68212890625 5497122.116699219 -757.76123046875 473252.26416015625 5497381.458496094 -943.0046997070312
          473630.02294921875 5496965.0849609375 -563.8074951171875 473564.9245605469 5496755.9677734375 -750.156494140625
          473386.5622558594 5496940.4306640625 -939.9966430664062 473732.89306640625 5496614.4345703125 -554.4859619140625
          473685.7487792969 5496376.571777344 -724.273681640625 473776.0187988281 5496886.1337890625 -374.4692077636719
          473889.2199707031 5496511.122558594 -358.26995849609375 473821.04296875 5497172.827636719 -182.4552764892578
          473922.462890625 5496806.0615234375 -184.5235137939453 473852.0695800781 5497424.9404296875 -25.128870010375977
          473745.056640625 5497822.6513671875 -7.86085319519043 474009.3046875 5497018.849609375 37.47718048095703
          474012.4455566406 5497157.534667969 101.33794403076172 474037.744140625 5497068.298339844 101.53471374511719
          473963.2463378906 5497331.337890625 101.68170928955078 473879.1057128906 5497618.63671875 100.34813690185547
          473845.94970703125 5497729.2548828125 100.13494110107422 473765.6774902344 5497998.69921875 99.88751220703125
          473721.830078125 5498141.0068359375 99.60676574707031 473647.677734375 5498388.6015625 98.35169982910156
          473601.36181640625 5498540.5087890625 98.20824432373047 473528.7751464844 5498799.2919921875 98.03861236572266
          473495.31591796875 5498916.8369140625 98.04515838623047 473421.9970703125 5499217.5556640625 98.68268585205078
          474062.24755859375 5496980.866699219 101.29956817626953 474081.38720703125 5496681.312011719 4.908968925476074
          474129.4716796875 5496736.890136719 100.52273559570312 474171.43115234375 5496580.7314453125 98.72721099853516
          474152.990234375 5496280.9697265625 -52.800140380859375 474016.6579589844 5496445.919921875 -190.81582641601562
          474197.15771484375 5496486.833984375 98.6203384399414 474277.064453125 5496194.309082031 97.24832916259766
          474244.7724609375 5495923.3935546875 -62.39684295654297 474060.6770019531 5496086.7177734375 -272.21453857421875
          474289.21435546875 5496150.183105469 97.29692840576172 474369.1982421875 5495864.1748046875 97.66083526611328
          474392.57568359375 5495594.911621094 19.991518020629883 474399.76708984375 5495755.6943359375 97.77894592285156
          474222.921875 5495662.4541015625 -204.26121520996094 474355.9833984375 5495306.447265625 -155.17100524902344
          474511.4541015625 5495334.912597656 85.7359848022461 474208.0478515625 5495342.6162109375 -361.5129089355469
          474327.52978515625 5495000 -327.3460693359375 474087.5944824219 5495688.9755859375 -398.127197265625
          474072.71875 5495345.8564453125 -565.2096557617188 474187.5859375 5495000 -537.5536499023438
          473945.12353515625 5495703.0859375 -609.6744384765625 473922.7873535156 5495446.4189453125 -750.0527954101562
          473963.5002441406 5495976.544921875 -466.77069091796875 473811.44287109375 5496030.9150390625 -676.2820434570312
          473858.37841796875 5496270.623535156 -505.36505126953125 473646.939453125 5496118.7578125 -887.9436645507812
          473780.109375 5495781.3056640625 -826.24951171875 473512.771484375 5496527.993652344 -922.2423095703125
          473490.3259277344 5496258.3095703125 -1065.2694091796875 473330.6696777344 5496692.529785156 -1126.31884765625
          473210.01806640625 5497114.532714844 -1124.83154296875 473355.0954589844 5496368.131347656 -1223.1622314453125
          473211.2521972656 5496546.931640625 -1366.378662109375 473454.8547363281 5495992.895019531 -1227.5577392578125
          473286.1652832031 5496183.180175781 -1405.18603515625 473611.59619140625 5495852.16015625 -1049.5653076171875
          473568.0515136719 5495605.1123046875 -1217.3143310546875 473744.22998046875 5495550.45703125 -974.8765258789062
          473890.5183105469 5495264.057128906 -874.0419311523438 474048.09619140625 5495000 -747.8682250976562
          473746.0107421875 5495292.6201171875 -1079.1065673828125 473908.28369140625 5495000 -958.10693359375
          473623.1540527344 5495291.091796875 -1266.029052734375 473447.5119628906 5495547.678222656 -1425.60302734375
          473768.70263671875 5495000 -1168.4000244140625 473631.34228515625 5495000 -1379.2091064453125
          473514.4221191406 5495266.855957031 -1443.713134765625 473496.0808105469 5495000 -1590.4971923828125
          473389.7751464844 5495297.943847656 -1626.06689453125 473364.0061035156 5495000 -1802.4970703125
          473261.07568359375 5495337.347167969 -1815.065673828125 473302.51611328125 5495627.546386719 -1618.9364013671875
          473234.6901855469 5495000 -2015.0970458984375 473146.4138183594 5495337.9072265625 -2002.6788330078125
          473108.04052734375 5495000 -2228.263671875 473063.8381347656 5495693.415527344 -1974.921142578125
          473161.740234375 5495717.719238281 -1804.33740234375 473009.4812011719 5495466.682128906 -2171.0986328125
          472933.40478515625 5495887.9453125 -2101.7314453125 472931.5187988281 5495331.6923828125 -2368.676025390625
          472850.89697265625 5495741.836425781 -2309.791259765625 472983.4416503906 5495000 -2441.857421875
          472813.6530761719 5495259.423828125 -2609.71875 472767.54541015625 5495583.3447265625 -2530.353759765625
          472861.46337890625 5495000 -2655.9853515625 472675.4543457031 5495363.2392578125 -2802.479248046875
          472741.1921386719 5495000 -2870.454833984375 472530.1435546875 5495479.666015625 -3002.024658203125
          472564.35693359375 5495628.760253906 -2864.240234375 472622.2253417969 5495000 -3085.181640625
          472477.7548828125 5495387.7353515625 -3143.98974609375 472361.4270019531 5495781.160644531 -3141.911865234375
          472491.9294433594 5495171.560546875 -3230.812744140625 472420.6955566406 5495265.354003906 -3310.43017578125
          472503.47021484375 5495000 -3299.94970703125 472384.00927734375 5495000 -3514.579345703125
          472272.17919921875 5495433.044433594 -3485.40234375 472219.69091796875 5495270.21875 -3663.427490234375
          472302.7644042969 5495640.704589844 -3319.5634765625 472121.0080566406 5495882.048828125 -3500.92333984375
          472185.5458984375 5496026.816894531 -3309.294921875 472129.9016113281 5495625.6533203125 -3628.374755859375
          472078.8046875 5495707.225097656 -3669.61328125 472212.24658203125 5495294.605957031 -3663.810546875