<?xml version="1.0"?>
<VTKFile type="UnstructuredGrid" version="1.0" byte_order="LittleEndian" header_type="UInt64">
  <UnstructuredGrid>
    <FieldData>
      <DataArray type="Int8" Name="IntegrationPointMetaData" NumberOfTuples="166" format="ascii" RangeMin="34" RangeMax="125">
        123 34 105 110 116 101
        103 114 97 116 105 111
        110 95 112 111 105 110
        116 95 97 114 114 97
        121 115 34 58 91 123
        34 105 110 116 101 103
        114 97 116 105 111 110
        95 111 114 100 101 114
        34 58 51 44 34 110
        97 109 101 34 58 34
        115 105 103 109 97 95
        105 112 34 44 34 110
        117 109 98 101 114 95
        111 102 95 99 111 109
        112 111 110 101 110 116
        115 34 58 52 125 44
        123 34 105 110 116 101
        103 114 97 116 105 111
        110 95 111 114 100 101
        114 34 58 51 44 34
        110 97 109 101 34 58
        34 101 112 115 105 108
        111 110 95 105 112 34
        44 34 110 117 109 98
        101 114 95 111 102 95
        99 111 109 112 111 110
        101 110 116 115 34 58
        52 125 93 125
      </DataArray>
      <DataArray type="Int8" Name="OGS_VERSION" NumberOfTuples="22" format="ascii" RangeMin="45" RangeMax="103">
        54 46 52 46 50 45
        49 49 56 49 45 103
        51 101 51 50 57 57
        57 48 98 48
      </DataArray>
      <DataArray type="Float64" Name="epsilon_ip" NumberOfComponents="4" NumberOfTuples="2055" format="ascii" RangeMin="0.00035091071836026555" RangeMax="0.003351818372093701">
        0.0020816641100424946 -0.0007407094702391215 0 -0.00007952593016887332 0.0020816641100424946 -0.0007407094702391215
        0 -0.00007952593016887332 0.0020816641100424946 -0.0007407094702391215 0 -0.00007952593016887332
        0.0020816641100424946 -0.0007407094702391215 0 -0.00007952593016887332 0.0023247355190422684 -0.00042141000355705617
        0 -0.00003165223162452264 0.0023247355190422684 -0.00042141000355705617 0 -0.00003165223162452264
        0.0023247355190422684 -0.00042141000355705617 0 -0.00003165223162452264 0.0023247355190422684 -0.00042141000355705617
        0 -0.00003165223162452264 0.0023068938073959335 -0.0004725469562616055 0 -0.000001397155614105282
        0.0023068938073959335 -0.0004725469562616055 0 -0.000001397155614105282 0.0023068938073959335 -0.0004725469562616055
        0 -0.000001397155614105282 0.0023068938073959335 -0.0004725469562616055 0 -0.000001397155614105282
        0.0018716801973537888 -0.0009816880878654175 0 -0.00016537054799344128 0.0018716801973537888 -0.0009816880878654175
        0 -0.00016537054799344128 0.0018716801973537888 -0.0009816880878654175 0 -0.00016537054799344128
        0.0018716801973537888 -0.0009816880878654175 0 -0.00016537054799344128 0.0020782758701648257 -0.0006362059662454844
        0 0.00005572638823556164 0.0020782758701648257 -0.0006362059662454844 0 0.00005572638823556164
        0.0020782758701648257 -0.0006362059662454844 0 0.00005572638823556164 0.0020782758701648257 -0.0006362059662454844
        0 0.00005572638823556164 0.0023397285050875075 -0.000458384968131812 0 0.00002566888631460836
        0.0023397285050875075 -0.000458384968131812 0 0.00002566888631460836 0.0023397285050875075 -0.000458384968131812
        0 0.00002566888631460836 0.0023397285050875075 -0.000458384968131812 0 0.00002566888631460836
        0.001985937873193648 -0.0007146860214513628 0 -0.00009393490992478297 0.001985937873193648 -0.0007146860214513628
        0 -0.00009393490992478297 0.001985937873193648 -0.0007146860214513628 0 -0.00009393490992478297
        0.001985937873193648 -0.0007146860214513628 0 -0.00009393490992478297 0.0018032391107717434 -0.0010536454235403178
        0 -0.0000814481309729495 0.0018032391107717434 -0.0010536454235403178 0 -0.0000814481309729495
        0.0018032391107717434 -0.0010536454235403178 0 -0.0000814481309729495 0.0018032391107717434 -0.0010536454235403178
        0 -0.0000814481309729495 0.0020845621916703665 -0.0006282078976060686 0 -0.000050606827183906234
        0.0020845621916703665 -0.0006282078976060686 0 -0.000050606827183906234 0.0020845621916703665 -0.0006282078976060686
        0 -0.000050606827183906234 0.0020845621916703665 -0.0006282078976060686 0 -0.000050606827183906234
        0.002166450867138283 -0.00066704867147851 0 0.00005253186419962733 0.002166450867138283 -0.00066704867147851
        0 0.00005253186419962733 0.002166450867138283 -0.00066704867147851 0 0.00005253186419962733
        0.002166450867138283 -0.00066704867147851 0 0.00005253186419962733 0.0022813906905504943 -0.00041467844955083365
        0 0.000007050505324759736 0.0022813906905504943 -0.00041467844955083365 0 0.000007050505324759736
        0.0022813906905504943 -0.00041467844955083365 0 0.000007050505324759736 0.0022813906905504943 -0.00041467844955083365
        0 0.000007050505324759736 0.0022371153815682605 -0.0004915008504059207 0 0.00001168145392297039
        0.0022371153815682605 -0.0004915008504059207 0 0.00001168145392297039 0.0022371153815682605 -0.0004915008504059207
        0 0.00001168145392297039 0.0022371153815682605 -0.0004915008504059207 0 0.00001168145392297039
        0.002238264502912157 -0.0005816063384748171 0 0.00003476602034442506 0.002238264502912157 -0.0005816063384748171
        0 0.00003476602034442506 0.002238264502912157 -0.0005816063384748171 0 0.00003476602034442506
        0.002238264502912157 -0.0005816063384748171 0 0.00003476602034442506 0.0019318840102581826 -0.0008409394885440629
        0 -0.0000661435272644382 0.0019318840102581826 -0.0008409394885440629 0 -0.0000661435272644382
        0.0019318840102581826 -0.0008409394885440629 0 -0.0000661435272644382 0.0019318840102581826 -0.0008409394885440629
        0 -0.0000661435272644382 0.002083397045607865 -0.0007786615300717293 0 0.00006779393086327019
        0.002083397045607865 -0.0007786615300717293 0 0.00006779393086327019 0.002083397045607865 -0.0007786615300717293
        0 0.00006779393086327019 0.002083397045607865 -0.0007786615300717293 0 0.00006779393086327019
        0.0023396606792161316 -0.00040159335675174745 0 -0.000005174161825360025 0.0023396606792161316 -0.00040159335675174745
        0 -0.000005174161825360025 0.0023396606792161316 -0.00040159335675174745 0 -0.000005174161825360025
        0.0023396606792161316 -0.00040159335675174745 0 -0.000005174161825360025 0.00224131921223664 -0.0005042610484038826
        0 -0.000011165583512005105 0.00224131921223664 -0.0005042610484038826 0 -0.000011165583512005105
        0.00224131921223664 -0.0005042610484038826 0 -0.000011165583512005105 0.00224131921223664 -0.0005042610484038826
        0 -0.000011165583512005105 0.0023414407433831738 -0.0003942069155176976 0 0.00001401060621481284
        0.0023414407433831738 -0.0003942069155176976 0 0.00001401060621481284 0.0023414407433831738 -0.0003942069155176976
        0 0.00001401060621481284 0.0023414407433831738 -0.0003942069155176976 0 0.00001401060621481284
        0.0016055180214489795 -0.001269456229074354 0 -0.0000820436203318314 0.0016055180214489795 -0.001269456229074354
        0 -0.0000820436203318314 0.0016055180214489795 -0.001269456229074354 0 -0.0000820436203318314
        0.0016055180214489795 -0.001269456229074354 0 -0.0000820436203318314 0.0017121538950294706 -0.0010036999890482888
        0 -0.00016630862656230233 0.0017121538950294706 -0.0010036999890482888 0 -0.00016630862656230233
        0.0017121538950294706 -0.0010036999890482888 0 -0.00016630862656230233 0.0017121538950294706 -0.0010036999890482888
        0 -0.00016630862656230233 0.002155065874968052 -0.0006472077872821995 0 0.00003202120920873794
        0.002155065874968052 -0.0006472077872821995 0 0.00003202120920873794 0.002155065874968052 -0.0006472077872821995
        0 0.00003202120920873794 0.002155065874968052 -0.0006472077872821995 0 0.00003202120920873794
        0.0022452427832405277 -0.0005968116845600125 0 0.00004348031776201029 0.0022452427832405277 -0.0005968116845600125
        0 0.00004348031776201029 0.0022452427832405277 -0.0005968116845600125 0 0.00004348031776201029
        0.0022452427832405277 -0.0005968116845600125 0 0.00004348031776201029 0.0016095558542120712 -0.0012531056989417207
        0 0.00007959421981813042 0.0016095558542120712 -0.0012531056989417207 0 0.00007959421981813042
        0.0016095558542120712 -0.0012531056989417207 0 0.00007959421981813042 0.0016095558542120712 -0.0012531056989417207
        0 0.00007959421981813042 0.002241604496394248 -0.0005752765660810344 0 -0.00003142807386960689
        0.002241604496394248 -0.0005752765660810344 0 -0.00003142807386960689 0.002241604496394248 -0.0005752765660810344
        0 -0.00003142807386960689 0.002241604496394248 -0.0005752765660810344 0 -0.00003142807386960689
        0.002068940455519143 -0.0006358822377682616 0 0.00006561634485725055 0.002068940455519143 -0.0006358822377682616
        0 0.00006561634485725055 0.002068940455519143 -0.0006358822377682616 0 0.00006561634485725055
        0.002068940455519143 -0.0006358822377682616 0 0.00006561634485725055 0.0022811615979878553 -0.0004860172396031354
        0 -0.00003894342060162695 0.0022811615979878553 -0.0004860172396031354 0 -0.00003894342060162695
        0.0022811615979878553 -0.0004860172396031354 0 -0.00003894342060162695 0.0022811615979878553 -0.0004860172396031354
        0 -0.00003894342060162695 0.0018523484554450306 -0.0010390065329510033 0 0.00013491533659271666
        0.0018523484554450306 -0.0010390065329510033 0 0.00013491533659271666 0.0018523484554450306 -0.0010390065329510033
        0 0.00013491533659271666 0.0018523484554450306 -0.0010390065329510033 0 0.00013491533659271666
        0.002161521755713235 -0.0005737179057522058 0 0.00003833213818372542 0.002161521755713235 -0.0005737179057522058
        0 0.00003833213818372542 0.002161521755713235 -0.0005737179057522058 0 0.00003833213818372542
[...]
      <PointData>
        <DataArray type="Float64" Name="HeatFlowRate" format="ascii" RangeMin="-2.5290880500961066e-13" RangeMax="3.864754941695457">
          1.931572579552373 1.9325346543399295 4.9960036108132044e-14 3.341771304121721e-14 0.5213989656009475 0.5212156921379671
          3.863417968245275 3.863569722034505 3.861856761340663 3.864754941695457 3.861253398437654 3.8632783345397765
          3.8632784257922443 3.8635568116167525 3.8643536991452456 7.616129948928574e-14 -1.4299672557172016e-13 1.0258460747536446e-13
          -4.418687638008123e-14 -1.4566126083082054e-13 -3.530509218307998e-14 -3.019806626980426e-14 -9.64783808399261e-14 2.0539125955565396e-14
          -7.960299086562372e-14 -1.3244960683778118e-13 8.670841822322473e-14 1.3034018309099338e-13 4.54081217071689e-14 -1.3244960683778118e-13
          -1.871836019518014e-13 -5.2735593669694936e-14 -1.2212453270876722e-15 6.8833827526759706e-15 1.0957901253050295e-13 6.328271240363392e-14
          -2.7533531010703882e-14 -6.838973831690964e-14 2.4646951146678475e-14 3.1086244689504383e-15 -2.1094237467877974e-13 6.661338147750939e-15
          2.7797208979052357e-14 -2.4868995751603507e-14 -1.031952301389083e-13 1.5551102072741685e-13 4.73232564246473e-14 3.1530333899354446e-14
          7.083222897108499e-14 -4.268113640293336e-14 9.799105971097788e-14 1.0415030522824993 1.0420912452067062 1.0407523845759683
          1.0412441273352955 1.0412980086636088 1.0412677054296198 1.0407803416097479 1.0416696125344855 1.0409784907069377
          -8.594513989379493e-14 -1.3988810110276972e-14 -3.2751579226442118e-15 -1.1324274851176597e-14 -8.340550472496489e-14 4.145989107584569e-14
          -1.142280714461208e-13 -9.310607840262719e-14 -3.550632010629329e-14 1.811328864675943e-13 -1.7763568394002505e-14 1.3211653993039363e-13
          2.90878432451791e-14 -1.1146639167236572e-13 2.007283228522283e-13 -1.7030821197749901e-13 6.983302824892235e-14 -9.9253938401489e-14
          6.217248937900877e-14 -5.684341886080802e-14 -1.9984014443252818e-15 -6.050715484207103e-14 -8.915090887740007e-14 -1.2079226507921703e-13
          2.986499936241671e-13 -2.2870594307278225e-14 7.416289804496046e-14 -9.9253938401489e-14 -1.1524114995609125e-13 6.505906924303417e-14
          -5.773159728050814e-15 1.4144241333724494e-13 -7.016609515630989e-14 2.042810365310288e-14 -1.0835776720341528e-13 1.4011014570769476e-13
          -7.549516567451064e-14 2.6645352591003757e-15 -8.149037000748649e-14 -1.1435297153639112e-13 4.529709940470639e-14 -1.1146639167236572e-13
          1.6209256159527285e-14 3.863576125695545e-14 2.5068835896036035e-13 -1.2567724638756772e-13 5.795364188543317e-14 1.3034018309099338e-13
          2.1760371282653068e-14 2.76445533131664e-13 -1.0302869668521453e-13 1.7430501486614958e-14 -1.4566126083082054e-13 3.5083047578154947e-14
          7.30526750203353e-14 1.127986593019159e-13 2.6134649999676185e-13 -8.526512829121202e-14 1.0613732115416497e-13 8.837375276016246e-14
          3.2862601528904634e-14 8.08242361927114e-14 -6.195044477408373e-14 -1.0436096431476471e-13 -6.461498003318411e-14 4.263256414560601e-14
          7.438494264988549e-14 -6.772360450213455e-14 1.3877787807814457e-13 2.362554596402333e-13 1.765254609153999e-13 1.6431300764452317e-14
          -1.0436096431476471e-14 -5.906386491005833e-14 1.0103029524088925e-14 -2.1926904736346842e-13 -1.0880185641326534e-13 7.127631818093505e-14
          3.774758283725532e-15 6.994405055138486e-15 1.1235457009206584e-13 1.0558220964185239e-13 -3.108624468950438e-14 4.8183679268731794e-14
          -9.547918011776346e-15 3.4638958368304884e-14 -1.7763568394002505e-14 9.459100169806334e-14 -7.30526750203353e-14 1.2367884494324244e-13
          -1.1501910535116622e-13 1.7053025658242404e-13 -2.1738166822160565e-13 1.8340884366807586e-13 1.376676550535194e-13 -1.2523315717771766e-13
          -2.3647750424515834e-13 -6.961098364399732e-14 1.169342400686446e-13 5.98965321785272e-14 8.171241461241152e-14 -6.772360450213455e-14
          -4.085620730620576e-14 4.75175454539567e-14 -8.282263763703668e-14 -9.070522111187529e-14 -1.8740564655672642e-13 6.461498003318411e-14
          6.350475700855895e-14 -1.1957101975212936e-13 1.946776073680212e-13 -6.714073741420634e-14 4.98212582300539e-14 -1.3355982986240633e-13
          5.995204332975845e-15 -2.042810365310288e-14 1.0744183320809952e-13 -1.2073675392798577e-14 2.020605904817785e-14 1.7957857423311907e-13
          -1.6814327707947996e-13 7.521760991835436e-15 -2.2926105458509483e-14 -1.2029960361203962e-13 -3.8913317013111737e-14 -8.054668043655511e-14
          5.900835375882707e-14 1.6653345369377348e-16 9.658940314238862e-15 1.239286451237831e-13 -5.789119184029801e-14 1.1630280072338905e-13
          1.754846268298138e-13 -6.130512764102036e-14 -3.13915560212763e-14 1.1088352458443751e-13 1.3031242751537775e-13 -3.4416913763379853e-15
          -1.3666845433135677e-13 2.5431046157819992e-14 -2.2917778785824794e-13 -4.96269692007445e-14 -1.3850032232198828e-14 -2.914335439641036e-15
          -5.009881398621019e-14 -9.620082508376981e-14 1.3072876114961218e-13 -1.0988432386227487e-13 -2.3439583607398617e-14 -2.1135870831301418e-14
          9.092726571680032e-14 1.2619766343036076e-13 1.0777490011548707e-13 2.936539900133539e-14 -2.0050627824730327e-13 5.6066262743570405e-14
          1.9934054407144686e-13 -1.759703494030873e-13 -2.3858692799194614e-13 2.422090306097857e-13 -1.321859288694327e-14 -5.74054692670245e-14
          2.38073449843057e-14 -1.4072076837123859e-14 -6.677991493120317e-14 -1.89979976195076e-13 2.0233814623793478e-14 7.849276784099857e-14
          5.620504062164855e-14 -3.8746783559417963e-14 1.807651250906872e-13 -7.760458942129844e-14 9.703349235223868e-14 -1.3600232051658168e-14
          -1.5104584250025255e-13 -2.3869795029440866e-14 3.0142555118573e-14 -1.9686682839470393e-13 1.6292522886374172e-13 -1.908473379330644e-13
          -1.5271117703719028e-13 -1.569577801063815e-13 -1.136590821460004e-13 1.2917444891513696e-13 -5.648259637780484e-14 -6.689093723366568e-14
          -1.6087131626818518e-13 1.4566126083082054e-13 8.881784197001252e-14 2.2262747201295952e-13 -7.960992975952763e-14 -1.5709655798445965e-14
          1.6939227798218326e-13 -4.3950953987348385e-14 -1.5028256417082275e-13 1.556116346890235e-13 9.842474057997208e-14 1.8115717259625796e-13
          1.2601031329495527e-13 1.505184865635556e-13 2.0483614804334138e-14 -7.377431998634165e-14 -2.6423307986078726e-14 5.773159728050814e-14
          -5.883141196427744e-14 -1.10772502281975e-13 2.398081733190338e-13 -1.333377852574813e-13 -1.1796119636642288e-13 -2.5290880500961066e-13
          3.122502256758253e-14 2.0863866190268254e-13 -4.218847493575595e-14
        </DataArray>
        <DataArray type="Float64" Name="MassFlowRate" format="ascii" RangeMin="-5.137271716304969e-11" RangeMax="3.3281094958188223e-25">
          -2.5661979571472322e-11 -2.5725965148431058e-11 -1.3894049351476637e-25 5.331437541845686e-26 -2.6027913901885216e-11 -2.6037436719521228e-11
          -5.067395172895551e-11 -4.97891072629766e-11 -4.8864908128941685e-11 -4.882780845559377e-11 -4.818325193061486e-11 -4.8553928409893955e-11
          -4.90137720779405e-11 -4.976072634136046e-11 -5.07190020317402e-11 -6.139231108792002e-26 -1.6155871338926322e-26 -8.077935669463161e-27
          -9.208846663188003e-26 -1.3732490638087374e-25 1.3530542246350794e-26 1.454028420503369e-25 -5.533385933582265e-26 -1.5832753912147795e-25
          -9.693522803355793e-26 6.54312789226516e-26 -1.0420537013607478e-25 -7.916376956073898e-26 1.2116903504194741e-26 3.0373038117181485e-25
          3.27156394613258e-25 2.108341209729885e-25 2.7303422562785484e-25 6.381569178875897e-26 5.573775611929581e-26 -7.79520792103195e-26
          4.0389678347315804e-27 2.9888361977013695e-26 2.5849394142282115e-26 -8.239494382852424e-26 -1.6155871338926322e-26 6.462348535570529e-27
          3.2311742677852644e-26 9.249236341535319e-26 -1.4136387421560532e-26 -2.50416005753358e-26 3.6350710512584224e-26 2.261821987449685e-26
          7.754818242684634e-26 8.138520186984135e-26 -3.473512337869159e-26 -5.137271716304969e-11 -5.0663247095892156e-11 -4.9881055312300885e-11
          -4.945721715850064e-11 -4.9300882175637514e-11 -4.946495207011013e-11 -4.9900512317987145e-11 -5.065515054052147e-11 -5.136346225885513e-11
          5.533385933582265e-26 5.492996255234949e-26 -5.169878828456423e-26 4.2005265481208437e-26 7.270142102516845e-26 -8.56261180963095e-26
          -2.1810426307550534e-26 3.6350710512584224e-26 -8.522222131283635e-26 -1.203612414750011e-25 1.0824433797080636e-25 1.2924697071141057e-26
          -1.5751974555453164e-25 1.001664023013432e-25 -1.8134965577944796e-25 -8.077935669463161e-26 8.845339558062161e-26 4.967930436719844e-26
          2.532432832376701e-25 -5.492996255234949e-26 1.2440020930973268e-25 -7.270142102516845e-26 1.2359241574278636e-25 5.492996255234949e-26
          -8.077935669463161e-26 2.4718483148557272e-25 -9.693522803355793e-27 1.1793786077416215e-25 1.627704037396827e-25 -1.5287493254459032e-25
          -7.472090494253424e-26 -1.7488730724387743e-25 1.0985992510469899e-25 2.9807582620319064e-25 2.116419145399348e-25 6.623907248959792e-26
          7.108583389127582e-26 2.2456661161107587e-25 2.879784066163617e-25 9.208846663188003e-26 1.7933017186208217e-25 1.3894049351476637e-25
          1.260157964436253e-25 -3.069615554396001e-26 1.5994312625537059e-25 3.3281094958188223e-25 2.4233807008389483e-27 4.8467614016778965e-27
          -2.5849394142282115e-26 -1.9710163033490113e-25 1.0501316370302109e-26 -4.8871510800252123e-26 1.1955344790805478e-25 -1.1793786077416215e-25
          -9.693522803355793e-27 9.330015698229951e-26 8.885729236409477e-27 1.8983148823238428e-26 -4.321695583162791e-26 -1.8357108808855033e-25
          -2.0235228852005218e-25 -2.399146893830559e-25 -4.0389678347315804e-27 4.8467614016778965e-26 1.7771458472818954e-25 5.856503360360792e-26
          -3.2311742677852644e-27 -3.101927297073854e-25 -4.765982044983265e-26 -4.52364397489937e-26 3.6350710512584224e-27 3.554291694563791e-26
          -1.6155871338926322e-26 -6.785465962349055e-26 2.645523931749185e-26 1.0743654440386004e-25 6.058451752097371e-26 5.654554968624213e-26
          2.1689257272508587e-25 -1.655976812239948e-26 2.003328046026864e-25 -7.552869850948055e-26 -3.877409121342317e-26 -4.564033653246686e-26
          -6.058451752097371e-26 2.819199548642643e-25 -1.837730364802869e-25 2.5849394142282115e-26 -8.077935669463161e-26 -8.724170523020214e-26
          1.1147551223859162e-25 9.53196408996653e-26 1.001664023013432e-25 -3.715850407953054e-26 -6.139231108792002e-26 -3.1907845894379486e-26
          -3.2311742677852644e-27 6.623907248959792e-26 5.614165290276897e-26 7.916376956073898e-26 -5.129489150109107e-26 -4.6852026882886333e-26
          -7.674038885990003e-27 6.785465962349055e-26 -1.9104317858280375e-25 2.8838230339983484e-25 -2.972680326362443e-25 4.2005265481208437e-26
          4.8467614016778965e-26 1.9710163033490113e-25 -4.6852026882886333e-26 1.732717201099848e-25 6.220010465486634e-26 -2.0275618530352534e-25
          8.724170523020214e-26 5.816113682013476e-26 2.50416005753358e-26 7.148973067474897e-26 5.169878828456423e-26 -5.00832011506716e-26
          1.8902369466543796e-25 -6.92682983656466e-26 8.441442774589003e-26 2.8272774843121063e-26 2.81112161297318e-25 2.318367537135927e-25
          -6.502738213917845e-26 -2.455692443516801e-25 -1.6438599087357532e-25 -1.9387045606711586e-26 -1.2924697071141057e-26 -7.270142102516845e-27
          2.7949657416342537e-25 2.2375881804412956e-25 7.674038885990003e-26 -7.593259529295371e-26 1.1147551223859162e-25 5.492996255234949e-26
          7.270142102516845e-26 5.6545549686242126e-27 2.003328046026864e-25 1.0662875083691372e-25 -9.693522803355793e-27 -3.715850407953054e-26
          1.8417693326376007e-25 1.357093192469811e-25 -8.077935669463161e-27 1.1430278972290373e-25 6.300789822181265e-26 1.3207424819572268e-25
          7.754818242684634e-26 -1.106677186716453e-25 -7.674038885990003e-26 -1.454028420503369e-26 1.5994312625537059e-25 6.462348535570529e-27
          -1.1046577027990873e-25 -9.289626019882635e-26 -1.050131637030211e-25 -2.3466403119790482e-25 1.32882041762669e-25 2.205276437763443e-25
          1.3732490638087374e-25 1.1147551223859162e-25 -4.0389678347315804e-26 1.4217166778255163e-25 -1.001664023013432e-25 7.270142102516845e-27
          -1.6317430052315585e-25 1.2278462217584005e-25 -1.9387045606711586e-26 5.00832011506716e-26 1.454028420503369e-25 3.877409121342317e-26
          8.401053096241687e-26 1.3247814497919584e-25 9.693522803355793e-27 2.819199548642643e-25 -6.704686605654424e-26 -1.3813269994782005e-25
          1.6802106192483375e-25 9.128067306493372e-26 4.52364397489937e-26 -4.4832542965520543e-26 -2.100263274060422e-25 6.866245319043687e-26
          -2.665718770922843e-26 3.877409121342317e-26 7.754818242684634e-26 -5.614165290276897e-26 2.395107925995827e-25 2.0194839173657902e-26
          -1.0501316370302109e-26 2.9888361977013695e-26 3.3281094958188223e-25 9.289626019882635e-26 -5.53843464337568e-26 -7.674038885990003e-27
          -1.5671195198758532e-25 -1.1470668650637688e-25 -9.04728794979874e-26 7.108583389127582e-26 1.0258978300218214e-25 -1.0824433797080636e-25
          2.1891205664245166e-25 1.050131637030211e-25 -4.160136869773528e-26 -1.6155871338926322e-26 1.001664023013432e-25 -2.1608477915813955e-26
          -4.362085261510107e-26 6.462348535570529e-27 -6.462348535570529e-27
        </DataArray>
        <DataArray type="Float64" Name="NodalForces" NumberOfComponents="2" format="ascii" RangeMin="2.3283064365386963e-10" RangeMax="1618919.1270445907">
          887982.1383265425 1342303.8581637316 -897906.8482890829 1347094.069360557 -4.877801984548569e-8 -1.1641532182693481e-10
          4.886533133685589e-8 -1.1641532182693481e-9 8.49468051455915e-10 -656944.7161712624 -1.0295480024069548e-9 -657823.5496173792
          541871.6431348003 1154811.9978509792 434721.9125747965 880257.8165878062 280564.5215391511 830682.6005352475
          144699.14316427102 782363.2859842525 -8146.9894146225415 807671.163048128 -137241.49856530852 804981.4132832816
          -273949.19032650924 822159.6937198653 -436342.1277138217 878281.3850899397 -536252.704430217 1150785.3427215605
          -7.741618901491165e-9 3.4924596548080444e-9 -1.4726538211107254e-8 3.0850060284137726e-9 -2.0838342607021332e-8 2.7939677238464355e-9
          -2.7299392968416214e-8 2.735760062932968e-9 -3.3585820347070694e-8 2.6193447411060333e-9 -3.8708094507455826e-8 2.5029294192790985e-9
          -4.2957253754138947e-8 2.7939677238464355e-9 -4.7264620661735535e-8 1.3969838619232178e-9 -4.9243681132793427e-8 2.9103830456733704e-10
          7.057678885757923e-10 -6.984919309616089e-10 -3.092281986027956e-10 -2.9103830456733704e-10 -1.2732925824820995e-10 -1.6298145055770874e-9
          -1.8189894035458565e-12 -1.7462298274040222e-9 6.093614501878619e-10 -1.5133991837501526e-9 -1.1641532182693481e-10 -1.1641532182693481e-9
          -1.014996087178588e-9 -1.280568540096283e-9 -1.4588295016437769e-9 -6.984919309616089e-10 -5.020410753786564e-10 -3.4924596548080444e-10
          4.9243681132793427e-8 5.238689482212067e-10 4.738103598356247e-8 1.3969838619232178e-9 4.3655745685100555e-8 1.862645149230957e-9
          3.864988684654236e-8 2.444721758365631e-9 3.213062882423401e-8 2.852175384759903e-9 2.5203917175531387e-8 4.71482053399086e-9
          1.8975697457790375e-8 2.9685907065868378e-9 1.2223608791828156e-8 3.026798367500305e-9 6.170012056827545e-9 3.026798367500305e-9
          4.5925844460725784e-8 -1.280568540096283e-9 4.225876182317734e-8 -1.6880221664905548e-9 3.7747668102383614e-8 -1.979060471057892e-9
          3.166496753692627e-8 -2.0954757928848267e-9 2.6135239750146866e-8 -2.270098775625229e-9 1.979060471057892e-8 -2.3865140974521637e-9
          1.3271346688270569e-8 -2.7939677238464355e-9 8.64383764564991e-9 -1.2187229003757238e-9 4.3146428652107716e-9 -1.9754224922508e-9
          -5.129550117999315e-10 -1138344.3085776176 1.7462298274040222e-10 -1063256.651317361 -2.382876118645072e-10 -1026659.3735381555
          1.1641532182693481e-10 -1011335.9887353168 2.473825588822365e-10 -1006233.9854907666 -1.0186340659856796e-10 -1011410.5855523329
          8.731149137020111e-11 -1027356.0246340515 -6.220943760126829e-10 -1063337.1941682096 6.912159733474255e-10 -1138690.2485428818
          -3.536115400493145e-9 -1.280568540096283e-9 -6.592017598450184e-9 -2.270098775625229e-9 -1.257285475730896e-8 -1.9208528101444244e-9
          -1.7229467630386353e-8 -2.153683453798294e-9 -2.2409949451684952e-8 -2.6775524020195007e-9 -3.047171048820019e-8 -3.3178366720676422e-9
          -3.664172254502773e-8 -3.2014213502407074e-9 -4.2549800127744675e-8 -2.7212081477046013e-9 -4.9301888793706894e-8 -1.673470251262188e-9
          3.4924596548080444e-10 -2.9103830456733704e-10 -2.9103830456733704e-11 6.6356733441352844e-9 -5.820766091346741e-11 4.831235855817795e-9
          3.4924596548080444e-10 4.249159246683121e-9 -2.9103830456733704e-10 1.1641532182693481e-10 -1.7462298274040222e-10 5.005858838558197e-9
          2.9103830456733704e-10 5.820766091346741e-9 0 2.735760062932968e-9 -9.604264050722122e-10 2.2118911147117615e-9
          -6.402842700481415e-10 -2.3283064365386963e-10 -1.1641532182693481e-10 5.3551048040390015e-9 4.3655745685100555e-10 5.0640664994716644e-9
          5.820766091346741e-11 2.3283064365386963e-9 -2.9103830456733704e-10 2.3283064365386963e-10 2.9103830456733704e-10 5.995389074087143e-9
          4.3655745685100555e-10 6.111804395914078e-9 -1.1641532182693481e-10 -8.149072527885437e-10 -3.4924596548080444e-10 1.862645149230957e-9
          -2.9103830456733704e-10 3.14321368932724e-9 -6.402842700481415e-10 3.026798367500305e-9 -1.7462298274040222e-10 3.725290298461914e-9
          5.820766091346741e-11 4.540197551250458e-9 -2.9103830456733704e-10 4.423782229423523e-9 -4.656612873077393e-10 4.773028194904327e-9
          -5.238689482212067e-10 3.6088749766349792e-9 2.3283064365386963e-10 2.444721758365631e-9 0 5.238689482212067e-9
          2.9103830456733704e-10 5.9371814131736755e-9 1.2223608791828156e-9 5.3551048040390015e-9 1.2732925824820995e-10 6.05359673500061e-9
          1.1641532182693481e-9 5.995389074087143e-9 -5.820766091346741e-11 4.6566128730773926e-9 1.280568540096283e-9 6.51925802230835e-9
          9.022187441587448e-10 5.413312464952469e-9 2.1827872842550278e-10 3.841705620288849e-9 -5.820766091346741e-11 6.51925802230835e-9
          6.548361852765083e-10 7.043126970529556e-9 1.7462298274040222e-10 2.0954757928848267e-9 -7.639755494892597e-11 4.0745362639427185e-9
          1.7462298274040222e-10 3.4924596548080444e-9 -5.820766091346741e-11 8.498318493366241e-9 5.820766091346741e-10 3.14321368932724e-9
          5.820766091346741e-10 3.434251993894577e-9 5.529727786779404e-10 5.587935447692871e-9 1.0477378964424133e-9 8.672941476106644e-9
          -3.4924596548080444e-10 3.14321368932724e-9 -1.7462298274040222e-10 2.0954757928848267e-9 5.238689482212067e-10 2.3283064365386963e-9
          4.656612873077393e-10 3.4924596548080444e-9 -5.820766091346741e-11 4.0745362639427185e-9 4.0745362639427185e-10 4.190951585769653e-9
          -4.656612873077393e-10 6.28642737865448e-9 1.1641532182693481e-10 5.820766091346741e-9 -6.984919309616089e-10 6.402842700481415e-9
          -6.402842700481415e-10 4.016328603029251e-9 -3.637978807091713e-10 3.3760443329811096e-9 -4.3655745685100555e-10 3.434251993894577e-9
          4.656612873077393e-10 4.889443516731262e-9 3.4924596548080444e-10 5.529727786779404e-9 -1.1641532182693481e-10 4.6566128730773926e-9
          2.9103830456733704e-11 4.6566128730773926e-9 0 2.3283064365386963e-10 3.2014213502407074e-10 4.423782229423523e-9