<?xml version="1.0"?>
<!-- Time step: 192 | Time: 1.000000000000e+004 -->
<VTKFile type="UnstructuredGrid" version="0.1" byte_order="LittleEndian">
  <UnstructuredGrid>
    <Piece NumberOfPoints="260" NumberOfCells="259">
      <Points>
        <DataArray type="Float64" NumberOfComponents="3" format="ascii">
          0.000000000000e+000 0.000000000000e+000 0.000000000000e+000
          1.300000000000e+000 0.000000000000e+000 0.000000000000e+000
          2.600000000000e+000 0.000000000000e+000 0.000000000000e+000
          9.999999999990e-003 0.000000000000e+000 0.000000000000e+000
          1.999999999998e-002 0.000000000000e+000 0.000000000000e+000
          2.999999999997e-002 0.000000000000e+000 0.000000000000e+000
          3.999999999996e-002 0.000000000000e+000 0.000000000000e+000
          4.999999999995e-002 0.000000000000e+000 0.000000000000e+000
          5.999999999994e-002 0.000000000000e+000 0.000000000000e+000
          6.999999999993e-002 0.000000000000e+000 0.000000000000e+000
          7.999999999992e-002 0.000000000000e+000 0.000000000000e+000
          8.999999999991e-002 0.000000000000e+000 0.000000000000e+000
          9.999999999990e-002 0.000000000000e+000 0.000000000000e+000
          1.099999999999e-001 0.000000000000e+000 0.000000000000e+000
          1.199999999999e-001 0.000000000000e+000 0.000000000000e+000
          1.299999999999e-001 0.000000000000e+000 0.000000000000e+000
          1.399999999999e-001 0.000000000000e+000 0.000000000000e+000
          1.499999999999e-001 0.000000000000e+000 0.000000000000e+000
          1.599999999998e-001 0.000000000000e+000 0.000000000000e+000
          1.699999999998e-001 0.000000000000e+000 0.000000000000e+000
          1.799999999998e-001 0.000000000000e+000 0.000000000000e+000
          1.899999999998e-001 0.000000000000e+000 0.000000000000e+000
          1.999999999998e-001 0.000000000000e+000 0.000000000000e+000
          2.099999999998e-001 0.000000000000e+000 0.000000000000e+000
          2.199999999998e-001 0.000000000000e+000 0.000000000000e+000
          2.299999999998e-001 0.000000000000e+000 0.000000000000e+000
          2.399999999998e-001 0.000000000000e+000 0.000000000000e+000
          2.499999999998e-001 0.000000000000e+000 0.000000000000e+000
          2.599999999997e-001 0.000000000000e+000 0.000000000000e+000
          2.699999999997e-001 0.000000000000e+000 0.000000000000e+000
          2.799999999997e-001 0.000000000000e+000 0.000000000000e+000
          2.899999999997e-001 0.000000000000e+000 0.000000000000e+000
          2.999999999997e-001 0.000000000000e+000 0.000000000000e+000
          3.099999999997e-001 0.000000000000e+000 0.000000000000e+000
          3.199999999997e-001 0.000000000000e+000 0.000000000000e+000
          3.299999999997e-001 0.000000000000e+000 0.000000000000e+000
          3.399999999997e-001 0.000000000000e+000 0.000000000000e+000
          3.499999999997e-001 0.000000000000e+000 0.000000000000e+000
          3.599999999997e-001 0.000000000000e+000 0.000000000000e+000
          3.699999999997e-001 0.000000000000e+000 0.000000000000e+000
          3.799999999997e-001 0.000000000000e+000 0.000000000000e+000
          3.899999999997e-001 0.000000000000e+000 0.000000000000e+000
          3.999999999997e-001 0.000000000000e+000 0.000000000000e+000
          4.099999999997e-001 0.000000000000e+000 0.000000000000e+000
          4.199999999997e-001 0.000000000000e+000 0.000000000000e+000
          4.299999999996e-001 0.000000000000e+000 0.000000000000e+000
          4.399999999996e-001 0.000000000000e+000 0.000000000000e+000
          4.499999999996e-001 0.000000000000e+000 0.000000000000e+000
          4.599999999996e-001 0.000000000000e+000 0.000000000000e+000
          4.699999999996e-001 0.000000000000e+000 0.000000000000e+000
          4.799999999996e-001 0.000000000000e+000 0.000000000000e+000
          4.899999999996e-001 0.000000000000e+000 0.000000000000e+000
          4.999999999996e-001 0.000000000000e+000 0.000000000000e+000
          5.099999999996e-001 0.000000000000e+000 0.000000000000e+000
          5.199999999996e-001 0.000000000000e+000 0.000000000000e+000
          5.299999999996e-001 0.000000000000e+000 0.000000000000e+000
          5.399999999996e-001 0.000000000000e+000 0.000000000000e+000
          5.499999999996e-001 0.000000000000e+000 0.000000000000e+000
          5.599999999996e-001 0.000000000000e+000 0.000000000000e+000
          5.699999999996e-001 0.000000000000e+000 0.000000000000e+000
          5.799999999996e-001 0.000000000000e+000 0.000000000000e+000
          5.899999999996e-001 0.000000000000e+000 0.000000000000e+000
          5.999999999996e-001 0.000000000000e+000 0.000000000000e+000
          6.099999999996e-001 0.000000000000e+000 0.000000000000e+000
          6.199999999996e-001 0.000000000000e+000 0.000000000000e+000
          6.299999999996e-001 0.000000000000e+000 0.000000000000e+000
          6.399999999996e-001 0.000000000000e+000 0.000000000000e+000
          6.499999999996e-001 0.000000000000e+000 0.000000000000e+000
          6.599999999996e-001 0.000000000000e+000 0.000000000000e+000
          6.699999999996e-001 0.000000000000e+000 0.000000000000e+000
          6.799999999996e-001 0.000000000000e+000 0.000000000000e+000
          6.899999999996e-001 0.000000000000e+000 0.000000000000e+000
          6.999999999996e-001 0.000000000000e+000 0.000000000000e+000
          7.099999999997e-001 0.000000000000e+000 0.000000000000e+000
          7.199999999997e-001 0.000000000000e+000 0.000000000000e+000
          7.299999999997e-001 0.000000000000e+000 0.000000000000e+000
          7.399999999997e-001 0.000000000000e+000 0.000000000000e+000
          7.499999999997e-001 0.000000000000e+000 0.000000000000e+000
          7.599999999998e-001 0.000000000000e+000 0.000000000000e+000
          7.699999999998e-001 0.000000000000e+000 0.000000000000e+000
          7.799999999998e-001 0.000000000000e+000 0.000000000000e+000
          7.899999999998e-001 0.000000000000e+000 0.000000000000e+000
          7.999999999998e-001 0.000000000000e+000 0.000000000000e+000
          8.099999999998e-001 0.000000000000e+000 0.000000000000e+000
          8.199999999999e-001 0.000000000000e+000 0.000000000000e+000
          8.299999999999e-001 0.000000000000e+000 0.000000000000e+000
          8.399999999999e-001 0.000000000000e+000 0.000000000000e+000
          8.499999999999e-001 0.000000000000e+000 0.000000000000e+000
          8.599999999999e-001 0.000000000000e+000 0.000000000000e+000
          8.699999999999e-001 0.000000000000e+000 0.000000000000e+000
          8.800000000000e-001 0.000000000000e+000 0.000000000000e+000
          8.900000000000e-001 0.000000000000e+000 0.000000000000e+000
          9.000000000000e-001 0.000000000000e+000 0.000000000000e+000
          9.100000000000e-001 0.000000000000e+000 0.000000000000e+000
          9.200000000000e-001 0.000000000000e+000 0.000000000000e+000
          9.300000000000e-001 0.000000000000e+000 0.000000000000e+000
          9.400000000001e-001 0.000000000000e+000 0.000000000000e+000
          9.500000000001e-001 0.000000000000e+000 0.000000000000e+000
          9.600000000001e-001 0.000000000000e+000 0.000000000000e+000
          9.700000000001e-001 0.000000000000e+000 0.000000000000e+000
          9.800000000001e-001 0.000000000000e+000 0.000000000000e+000
          9.900000000001e-001 0.000000000000e+000 0.000000000000e+000
          1.000000000000e+000 0.000000000000e+000 0.000000000000e+000
          1.010000000000e+000 0.000000000000e+000 0.000000000000e+000
          1.020000000000e+000 0.000000000000e+000 0.000000000000e+000
          1.030000000000e+000 0.000000000000e+000 0.000000000000e+000
          1.040000000000e+000 0.000000000000e+000 0.000000000000e+000
          1.050000000000e+000 0.000000000000e+000 0.000000000000e+000
          1.060000000000e+000 0.000000000000e+000 0.000000000000e+000
          1.070000000000e+000 0.000000000000e+000 0.000000000000e+000
          1.080000000000e+000 0.000000000000e+000 0.000000000000e+000
          1.090000000000e+000 0.000000000000e+000 0.000000000000e+000
          1.100000000000e+000 0.000000000000e+000 0.000000000000e+000
          1.110000000000e+000 0.000000000000e+000 0.000000000000e+000
          1.120000000000e+000 0.000000000000e+000 0.000000000000e+000
          1.130000000000e+000 0.000000000000e+000 0.000000000000e+000
          1.140000000000e+000 0.000000000000e+000 0.000000000000e+000
          1.150000000000e+000 0.000000000000e+000 0.000000000000e+000
          1.160000000000e+000 0.000000000000e+000 0.000000000000e+000
          1.170000000000e+000 0.000000000000e+000 0.000000000000e+000
          1.180000000000e+000 0.000000000000e+000 0.000000000000e+000
          1.190000000000e+000 0.000000000000e+000 0.000000000000e+000
          1.200000000000e+000 0.000000000000e+000 0.000000000000e+000
          1.210000000000e+000 0.000000000000e+000 0.000000000000e+000
          1.220000000000e+000 0.000000000000e+000 0.000000000000e+000
          1.230000000000e+000 0.000000000000e+000 0.000000000000e+000
          1.240000000000e+000 0.000000000000e+000 0.000000000000e+000
          1.250000000000e+000 0.000000000000e+000 0.000000000000e+000
          1.260000000000e+000 0.000000000000e+000 0.000000000000e+000
          1.270000000000e+000 0.000000000000e+000 0.000000000000e+000
          1.280000000000e+000 0.000000000000e+000 0.000000000000e+000
          1.290000000000e+000 0.000000000000e+000 0.000000000000e+000
          1.310077519380e+000 0.000000000000e+000 0.000000000000e+000
          1.320155038760e+000 0.000000000000e+000 0.000000000000e+000
          1.330232558139e+000 0.000000000000e+000 0.000000000000e+000
          1.340310077519e+000 0.000000000000e+000 0.000000000000e+000
          1.350387596899e+000 0.000000000000e+000 0.000000000000e+000
          1.360465116279e+000 0.000000000000e+000 0.000000000000e+000
[...]
      <PointData Scalars="PRESSURE1">
        <DataArray type="Float64" Name="PRESSURE1" format="ascii">
          5.000000000000E+03	5.000000000000E+04	5.000000000000E+04	5.656000000000E+03	5.809500000000E+03	5.920000000000E+03	6.011000000000E+03	6.090800000000E+03	6.163300000000E+03	6.230900000000E+03	6.295000000000E+03	6.356500000000E+03	6.416300000000E+03	6.474900000000E+03	6.532800000000E+03	6.590300000000E+03	6.647800000000E+03	6.705600000000E+03	6.764000000000E+03	6.823100000000E+03	6.883400000000E+03	6.945000000000E+03	7.008300000000E+03	7.073500000000E+03	7.141000000000E+03	7.211200000000E+03	7.284300000000E+03	7.360900000000E+03	7.441500000000E+03	7.526700000000E+03	7.617100000000E+03	7.713700000000E+03	7.817300000000E+03	7.929300000000E+03	8.051200000000E+03	8.184900000000E+03	8.332900000000E+03	8.498700000000E+03	8.686800000000E+03	8.903700000000E+03	9.158800000000E+03	9.466900000000E+03	9.852100000000E+03	1.035900000000E+04	1.107000000000E+04	1.221300000000E+04	2.475800000000E+04	4.962900000000E+04	5.000000000000E+04	5.000300000000E+04	4.999900000000E+04	5.000000000000E+04	5.000000000000E+04	5.000000000000E+04	5.000000000000E+04	5.000000000000E+04	5.000000000000E+04	5.000000000000E+04	5.000000000000E+04	5.000000000000E+04	5.000000000000E+04	5.000000000000E+04	5.000000000000E+04	5.000000000000E+04	5.000000000000E+04	5.000000000000E+04	5.000000000000E+04	5.000000000000E+04	5.000000000000E+04	5.000000000000E+04	5.000000000000E+04	5.000000000000E+04	5.000000000000E+04	5.000000000000E+04	5.000000000000E+04	5.000000000000E+04	5.000000000000E+04	5.000000000000E+04	5.000000000000E+04	5.000000000000E+04	5.000000000000E+04	5.000000000000E+04	5.000000000000E+04	5.000000000000E+04	5.000000000000E+04	5.000000000000E+04	5.000000000000E+04	5.000000000000E+04	5.000000000000E+04	5.000000000000E+04	5.000000000000E+04	5.000000000000E+04	5.000000000000E+04	5.000000000000E+04	5.000000000000E+04	5.000000000000E+04	5.000000000000E+04	5.000000000000E+04	5.000000000000E+04	5.000000000000E+04	5.000000000000E+04	5.000000000000E+04	5.000000000000E+04	5.000000000000E+04	5.000000000000E+04	5.000000000000E+04	5.000000000000E+04	5.000000000000E+04	5.000000000000E+04	5.000000000000E+04	5.000000000000E+04	5.000000000000E+04	5.000000000000E+04	5.000000000000E+04	5.000000000000E+04	5.000000000000E+04	5.000000000000E+04	5.000000000000E+04	5.000000000000E+04	5.000000000000E+04	5.000000000000E+04	5.000000000000E+04	5.000000000000E+04	5.000000000000E+04	5.000000000000E+04	5.000000000000E+04	5.000000000000E+04	5.000000000000E+04	5.000000000000E+04	5.000000000000E+04	5.000000000000E+04	5.000000000000E+04	5.000000000000E+04	5.000000000000E+04	5.000000000000E+04	5.000000000000E+04	5.000000000000E+04	5.000000000000E+04	5.000000000000E+04	5.000000000000E+04	5.000000000000E+04	5.000000000000E+04	5.000000000000E+04	5.000000000000E+04	5.000000000000E+04	5.000000000000E+04	5.000000000000E+04	5.000000000000E+04	5.000000000000E+04	5.000000000000E+04	5.000000000000E+04	5.000000000000E+04	5.000000000000E+04	5.000000000000E+04	5.000000000000E+04	5.000000000000E+04	5.000000000000E+04	5.000000000000E+04	5.000000000000E+04	5.000000000000E+04	5.000000000000E+04	5.000000000000E+04	5.000000000000E+04	5.000000000000E+04	5.000000000000E+04	5.000000000000E+04	5.000000000000E+04	5.000000000000E+04	5.000000000000E+04	5.000000000000E+04	5.000000000000E+04	5.000000000000E+04	5.000000000000E+04	5.000000000000E+04	5.000000000000E+04	5.000000000000E+04	5.000000000000E+04	5.000000000000E+04	5.000000000000E+04	5.000000000000E+04	5.000000000000E+04	5.000000000000E+04	5.000000000000E+04	5.000000000000E+04	5.000000000000E+04	5.000000000000E+04	5.000000000000E+04	5.000000000000E+04	5.000000000000E+04	5.000000000000E+04	5.000000000000E+04	5.000000000000E+04	5.000000000000E+04	5.000000000000E+04	5.000000000000E+04	5.000000000000E+04	5.000000000000E+04	5.000000000000E+04	5.000000000000E+04	5.000000000000E+04	5.000000000000E+04	5.000000000000E+04	5.000000000000E+04	5.000000000000E+04	5.000000000000E+04	5.000000000000E+04	5.000000000000E+04	5.000000000000E+04	5.000000000000E+04	5.000000000000E+04	5.000000000000E+04	5.000000000000E+04	5.000000000000E+04	5.000000000000E+04	5.000000000000E+04	5.000000000000E+04	5.000000000000E+04	5.000000000000E+04	5.000000000000E+04	5.000000000000E+04	5.000000000000E+04	5.000000000000E+04	5.000000000000E+04	5.000000000000E+04	5.000000000000E+04	5.000000000000E+04	5.000000000000E+04	5.000000000000E+04	5.000000000000E+04	5.000000000000E+04	5.000000000000E+04	5.000000000000E+04	5.000000000000E+04	5.000000000000E+04	5.000000000000E+04	5.000000000000E+04	5.000000000000E+04	5.000000000000E+04	5.000000000000E+04	5.000000000000E+04	5.000000000000E+04	5.000000000000E+04	5.000000000000E+04	5.000000000000E+04	5.000000000000E+04	5.000000000000E+04	5.000000000000E+04	5.000000000000E+04	5.000000000000E+04	5.000000000000E+04	5.000000000000E+04	5.000000000000E+04	5.000000000000E+04	5.000000000000E+04	5.000000000000E+04	5.000000000000E+04	5.000000000000E+04	5.000000000000E+04	5.000000000000E+04	5.000000000000E+04
        </DataArray>
        <DataArray type="Float64" Name="PRESSURE2" format="ascii">
          2.000000000000E+05	2.017100000000E+05	2.017100000000E+05	2.006500000000E+05	2.007900000000E+05	2.008900000000E+05	2.009700000000E+05	2.010300000000E+05	2.010900000000E+05	2.011400000000E+05	2.011800000000E+05	2.012200000000E+05	2.012500000000E+05	2.012900000000E+05	2.013200000000E+05	2.013500000000E+05	2.013700000000E+05	2.014000000000E+05	2.014200000000E+05	2.014400000000E+05	2.014600000000E+05	2.014800000000E+05	2.015000000000E+05	2.015200000000E+05	2.015300000000E+05	2.015500000000E+05	2.015600000000E+05	2.015800000000E+05	2.015900000000E+05	2.016000000000E+05	2.016100000000E+05	2.016200000000E+05	2.016300000000E+05	2.016400000000E+05	2.016500000000E+05	2.016600000000E+05	2.016700000000E+05	2.016700000000E+05	2.016800000000E+05	2.016800000000E+05	2.016900000000E+05	2.016900000000E+05	2.017000000000E+05	2.017000000000E+05	2.017000000000E+05	2.017100000000E+05	2.017100000000E+05	2.017100000000E+05	2.017100000000E+05	2.017100000000E+05	2.017100000000E+05	2.017100000000E+05	2.017100000000E+05	2.017100000000E+05	2.017100000000E+05	2.017100000000E+05	2.017100000000E+05	2.017100000000E+05	2.017100000000E+05	2.017100000000E+05	2.017100000000E+05	2.017100000000E+05	2.017100000000E+05	2.017100000000E+05	2.017100000000E+05	2.017100000000E+05	2.017100000000E+05	2.017100000000E+05	2.017100000000E+05	2.017100000000E+05	2.017100000000E+05	2.017100000000E+05	2.017100000000E+05	2.017100000000E+05	2.017100000000E+05	2.017100000000E+05	2.017100000000E+05	2.017100000000E+05	2.017100000000E+05	2.017100000000E+05	2.017100000000E+05	2.017100000000E+05	2.017100000000E+05	2.017100000000E+05	2.017100000000E+05	2.017100000000E+05	2.017100000000E+05	2.017100000000E+05	2.017100000000E+05	2.017100000000E+05	2.017100000000E+05	2.017100000000E+05	2.017100000000E+05	2.017100000000E+05	2.017100000000E+05	2.017100000000E+05	2.017100000000E+05	2.017100000000E+05	2.017100000000E+05	2.017100000000E+05	2.017100000000E+05	2.017100000000E+05	2.017100000000E+05	2.017100000000E+05	2.017100000000E+05	2.017100000000E+05	2.017100000000E+05	2.017100000000E+05	2.017100000000E+05	2.017100000000E+05	2.017100000000E+05	2.017100000000E+05	2.017100000000E+05	2.017100000000E+05	2.017100000000E+05	2.017100000000E+05	2.017100000000E+05	2.017100000000E+05	2.017100000000E+05	2.017100000000E+05	2.017100000000E+05	2.017100000000E+05	2.017100000000E+05	2.017100000000E+05	2.017100000000E+05	2.017100000000E+05	2.017100000000E+05	2.017100000000E+05	2.017100000000E+05	2.017100000000E+05	2.017100000000E+05	2.017100000000E+05	2.017100000000E+05	2.017100000000E+05	2.017100000000E+05	2.017100000000E+05	2.017100000000E+05	2.017100000000E+05	2.017100000000E+05	2.017100000000E+05	2.017100000000E+05	2.017100000000E+05	2.017100000000E+05	2.017100000000E+05	2.017100000000E+05	2.017100000000E+05	2.017100000000E+05	2.017100000000E+05	2.017100000000E+05	2.017100000000E+05	2.017100000000E+05	2.017100000000E+05	2.017100000000E+05	2.017100000000E+05	2.017100000000E+05	2.017100000000E+05	2.017100000000E+05	2.017100000000E+05	2.017100000000E+05	2.017100000000E+05	2.017100000000E+05	2.017100000000E+05	2.017100000000E+05	2.017100000000E+05	2.017100000000E+05	2.017100000000E+05	2.017100000000E+05	2.017100000000E+05	2.017100000000E+05	2.017100000000E+05	2.017100000000E+05	2.017100000000E+05	2.017100000000E+05	2.017100000000E+05	2.017100000000E+05	2.017100000000E+05	2.017100000000E+05	2.017100000000E+05	2.017100000000E+05	2.017100000000E+05	2.017100000000E+05	2.017100000000E+05	2.017100000000E+05	2.017100000000E+05	2.017100000000E+05	2.017100000000E+05	2.017100000000E+05	2.017100000000E+05	2.017100000000E+05	2.017100000000E+05	2.017100000000E+05	2.017100000000E+05	2.017100000000E+05	2.017100000000E+05	2.017100000000E+05	2.017100000000E+05	2.017100000000E+05	2.017100000000E+05	2.017100000000E+05	2.017100000000E+05	2.017100000000E+05	2.017100000000E+05	2.017100000000E+05	2.017100000000E+05	2.017100000000E+05	2.017100000000E+05	2.017100000000E+05	2.017100000000E+05	2.017100000000E+05	2.017100000000E+05	2.017100000000E+05	2.017100000000E+05	2.017100000000E+05	2.017100000000E+05	2.017100000000E+05	2.017100000000E+05	2.017100000000E+05	2.017100000000E+05	2.017100000000E+05	2.017100000000E+05	2.017100000000E+05	2.017100000000E+05	2.017100000000E+05	2.017100000000E+05	2.017100000000E+05	2.017100000000E+05	2.017100000000E+05	2.017100000000E+05	2.017100000000E+05	2.017100000000E+05	2.017100000000E+05	2.017100000000E+05	2.017100000000E+05	2.017100000000E+05	2.017100000000E+05	2.017100000000E+05	2.017100000000E+05	2.017100000000E+05	2.017100000000E+05	2.017100000000E+05	2.017100000000E+05	2.017100000000E+05	2.017100000000E+05	2.017100000000E+05	2.017100000000E+05	2.017100000000E+05	2.017100000000E+05	2.017100000000E+05	2.017100000000E+05	2.017100000000E+05	2.017100000000E+05	2.017100000000E+05	2.017100000000E+05	2.017100000000E+05	2.017100000000E+05	2.017100000000E+05	2.017100000000E+05	2.017100000000E+05	2.017100000000E+05	2.017100000000E+05
        </DataArray>
        <DataArray type="Float64" Name="SATURATION1" format="ascii">
          9.927200000000E-01	1.000000000000E-02	1.000000000000E-02	7.783000000000E-01	7.405800000000E-01	7.132700000000E-01	6.918600000000E-01	6.738800000000E-01	6.581200000000E-01	6.439400000000E-01	6.309100000000E-01	6.187500000000E-01	6.072800000000E-01	5.963400000000E-01	5.858200000000E-01	5.756500000000E-01	5.657400000000E-01	5.560300000000E-01	5.464900000000E-01	5.370600000000E-01	5.277000000000E-01	5.183800000000E-01	5.090600000000E-01	4.997200000000E-01	4.903300000000E-01	4.808400000000E-01	4.712400000000E-01	4.614900000000E-01	4.515500000000E-01	4.414000000000E-01	4.309900000000E-01	4.202800000000E-01	4.092200000000E-01	3.977500000000E-01	3.858200000000E-01	3.733300000000E-01	3.601900000000E-01	3.462900000000E-01	3.314800000000E-01	3.155500000000E-01	2.982400000000E-01	2.791700000000E-01	2.577600000000E-01	2.332100000000E-01	2.046100000000E-01	1.512600000000E-01	3.567300000000E-02	8.005100000000E-03	1.009400000000E-02	9.974800000000E-03	1.000700000000E-02	9.998200000000E-03	1.000000000000E-02	9.999900000000E-03	1.000000000000E-02	1.000000000000E-02	1.000000000000E-02	1.000000000000E-02	1.000000000000E-02	1.000000000000E-02	1.000000000000E-02	1.000000000000E-02	1.000000000000E-02	1.000000000000E-02	1.000000000000E-02	1.000000000000E-02	1.000000000000E-02	1.000000000000E-02	1.000000000000E-02	1.000000000000E-02	1.000000000000E-02	1.000000000000E-02	1.000000000000E-02	1.000000000000E-02	1.000000000000E-02	1.000000000000E-02	1.000000000000E-02	1.000000000000E-02	1.000000000000E-02	1.000000000000E-02	1.000000000000E-02	1.000000000000E-02	1.000000000000E-02	1.000000000000E-02	1.000000000000E-02	1.000000000000E-02	1.000000000000E-02	1.000000000000E-02	1.000000000000E-02	1.000000000000E-02	1.000000000000E-02	1.000000000000E-02	1.000000000000E-02	1.000000000000E-02	1.000000000000E-02	1.000000000000E-02	1.000000000000E-02	1.000000000000E-02	1.000000000000E-02	1.000000000000E-02	1.000000000000E-02	1.000000000000E-02	1.000000000000E-02	1.000000000000E-02	1.000000000000E-02	1.000000000000E-02	1.000000000000E-02	1.000000000000E-02	1.000000000000E-02	1.000000000000E-02	1.000000000000E-02	1.000000000000E-02	1.000000000000E-02	1.000000000000E-02	1.000000000000E-02	1.000000000000E-02	1.000000000000E-02	1.000000000000E-02	1.000000000000E-02	1.000000000000E-02	1.000000000000E-02	1.000000000000E-02	1.000000000000E-02	1.000000000000E-02	1.000000000000E-02	1.000000000000E-02	1.000000000000E-02	1.000000000000E-02	1.000000000000E-02	1.000000000000E-02	1.000000000000E-02	1.000000000000E-02	1.000000000000E-02	1.000000000000E-02	1.000000000000E-02	1.000000000000E-02	1.000000000000E-02	1.000000000000E-02	1.000000000000E-02	1.000000000000E-02	1.000000000000E-02	1.000000000000E-02	1.000000000000E-02	1.000000000000E-02	1.000000000000E-02	1.000000000000E-02	1.000000000000E-02	1.000000000000E-02	1.000000000000E-02	1.000000000000E-02	1.000000000000E-02	1.000000000000E-02	1.000000000000E-02	1.000000000000E-02	1.000000000000E-02	1.000000000000E-02	1.000000000000E-02	1.000000000000E-02	1.000000000000E-02	1.000000000000E-02	1.000000000000E-02	1.000000000000E-02	1.000000000000E-02	1.000000000000E-02	1.000000000000E-02	1.000000000000E-02	1.000000000000E-02	1.000000000000E-02	1.000000000000E-02	1.000000000000E-02	1.000000000000E-02	1.000000000000E-02	1.000000000000E-02	1.000000000000E-02	1.000000000000E-02	1.000000000000E-02	1.000000000000E-02	1.000000000000E-02	1.000000000000E-02	1.000000000000E-02	1.000000000000E-02	1.000000000000E-02	1.000000000000E-02	1.000000000000E-02	1.000000000000E-02	1.000000000000E-02	1.000000000000E-02	1.000000000000E-02	1.000000000000E-02	1.000000000000E-02	1.000000000000E-02	1.000000000000E-02	1.000000000000E-02	1.000000000000E-02	1.000000000000E-02	1.000000000000E-02	1.000000000000E-02	1.000000000000E-02	1.000000000000E-02	1.000000000000E-02	1.000000000000E-02	1.000000000000E-02	1.000000000000E-02	1.000000000000E-02	1.000000000000E-02	1.000000000000E-02	1.000000000000E-02	1.000000000000E-02	1.000000000000E-02	1.000000000000E-02	1.000000000000E-02	1.000000000000E-02	1.000000000000E-02	1.000000000000E-02	1.000000000000E-02	1.000000000000E-02	1.000000000000E-02	1.000000000000E-02	1.000000000000E-02	1.000000000000E-02	1.000000000000E-02	1.000000000000E-02	1.000000000000E-02	1.000000000000E-02	1.000000000000E-02	1.000000000000E-02	1.000000000000E-02	1.000000000000E-02	1.000000000000E-02	1.000000000000E-02	1.000000000000E-02	1.000000000000E-02	1.000000000000E-02	1.000000000000E-02	1.000000000000E-02	1.000000000000E-02	1.000000000000E-02	1.000000000000E-02	1.000000000000E-02	1.000000000000E-02	1.000000000000E-02	1.000000000000E-02	1.000000000000E-02	1.000000000000E-02	1.000000000000E-02	1.000000000000E-02	1.000000000000E-02	1.000000000000E-02	1.000000000000E-02	1.000000000000E-02	1.000000000000E-02	1.000000000000E-02	1.000000000000E-02	1.000000000000E-02	1.000000000000E-02	1.000000000000E-02	1.000000000000E-02	1.000000000000E-02	1.000000000000E-02	1.000000000000E-02
        </DataArray>
      </PointData>
      <CellData>
      </CellData>
    </Piece>
  </UnstructuredGrid>
</VTKFile>
