<?xml version="1.0"?>
<VTKFile type="UnstructuredGrid" version="0.1" byte_order="LittleEndian" header_type="UInt32">
  <UnstructuredGrid>
    <FieldData>
      <DataArray type="Int8" Name="IntegrationPointMetaData" NumberOfTuples="237" format="ascii" RangeMin="34" RangeMax="125">
        123 34 105 110 116 101
        103 114 97 116 105 111
        110 95 112 111 105 110
        116 95 97 114 114 97
        121 115 34 58 91 123
        34 105 110 116 101 103
        114 97 116 105 111 110
        95 111 114 100 101 114
        34 58 50 44 34 110
        97 109 101 34 58 34
        115 105 103 109 97 95
        105 112 34 44 34 110
        117 109 98 101 114 95
        111 102 95 99 111 109
        112 111 110 101 110 116
        115 34 58 54 125 44
        123 34 105 110 116 101
        103 114 97 116 105 111
        110 95 111 114 100 101
        114 34 58 50 44 34
        110 97 109 101 34 58
        34 101 112 115 105 108
        111 110 95 105 112 34
        44 34 110 117 109 98
        101 114 95 111 102 95
        99 111 109 112 111 110
        101 110 116 115 34 58
        54 125 44 123 34 105
        110 116 101 103 114 97
        116 105 111 110 95 111
        114 100 101 114 34 58
        50 44 34 110 97 109
        101 34 58 34 101 112
        115 105 108 111 110 95
        109 95 105 112 34 44
        34 110 117 109 98 101
        114 95 111 102 95 99
        111 109 112 111 110 101
        110 116 115 34 58 54
        125 93 125
      </DataArray>
      <DataArray type="Int8" Name="OGS_VERSION" NumberOfTuples="40" format="ascii" RangeMin="45" RangeMax="121">
        54 46 50 46 48 45
        49 53 45 103 53 51
        56 49 101 101 99 99
        100 46 100 105 114 116
        121 46 50 48 49 57
        48 52 48 49 49 53
        48 52 49 50
      </DataArray>
      <DataArray type="Float64" Name="epsilon_ip" NumberOfComponents="6" NumberOfTuples="1890" format="ascii" RangeMin="6.0457811682e-09" RangeMax="0.004975419799">
        6.0457811682e-09 3.6882045047e-20 -7.6255853054e-20 -1.0547189339e-18 -2.1618477696e-20 1.9608015027e-18
        6.0457811726e-09 1.2803544114e-19 5.6494943247e-37 1.4954163087e-19 -3.1257845215e-20 3.2128959341e-19
        6.0457811765e-09 2.1918883724e-19 7.6255853054e-20 7.2131866124e-19 -2.1618477696e-20 -1.412444014e-18
        6.0457811721e-09 3.2942903359e-37 -3.7698382976e-20 -1.1032358646e-20 -4.440682672e-20 -4.9325358072e-19
        6.0457811804e-09 6.5885806718e-37 -1.7213574631e-36 8.3384210218e-19 -5.4046194239e-20 -8.316372735e-20
        6.0457811847e-09 3.2942903359e-37 3.7698382976e-20 1.084565364e-18 -4.440682672e-20 -2.9465230474e-18
        6.0457811709e-09 -3.6882045047e-20 8.5908710274e-22 5.6918793209e-20 -2.1618477696e-20 3.1093984633e-19
        6.045781183e-09 -1.2803544114e-19 1.713795935e-36 -3.8711106497e-19 -3.1257845215e-20 -8.9010705579e-19
        6.0457811785e-09 -2.1918883724e-19 -8.5908710274e-22 7.2131866124e-19 -2.1618477696e-20 6.7509703279e-19
        3.7339275575e-08 1.037932931e-19 4.0671927351e-20 1.3985505328e-18 -8.6653465679e-21 -3.2479939002e-20
        3.7339275574e-08 1.1439968226e-19 -1.0072197063e-35 4.2894338559e-18 -1.9011769128e-20 7.6211282714e-19
        3.7339275576e-08 1.2500607143e-19 -4.0671927351e-20 1.660460879e-18 -8.6653465679e-21 -1.2591146723e-18
        3.7339275575e-08 0 8.2057617592e-20 -1.0686319719e-19 -1.1316943859e-20 2.7339312762e-19
        3.7339275575e-08 0 0 6.0384808967e-19 -2.166336642e-20 -1.616457306e-18
        3.7339275577e-08 0 -8.2057617592e-20 7.0124200986e-19 -1.1316943859e-20 -6.4658292239e-19
        3.7339275576e-08 -1.037932931e-19 1.2344330783e-19 -1.9746949839e-18 -8.6653465679e-21 -2.9473086641e-18
        3.7339275576e-08 -1.1439968226e-19 -9.4965732405e-36 -4.2970092775e-18 -1.9011769128e-20 -1.0817680042e-18
        3.7339275574e-08 -1.2500607143e-19 -1.2344330783e-19 2.120448904e-18 -8.6653465679e-21 1.6525715859e-18
        6.863276998e-08 1.7070454115e-19 1.5759970776e-19 4.785744828e-19 4.28778456e-21 -3.2479939002e-20
        6.8632769971e-08 1.0076392338e-19 0 -3.7877107997e-21 -6.7656930408e-21 -8.1199847504e-20
        6.8632769971e-08 3.0823305621e-20 -1.5759970776e-19 -3.8593954211e-18 4.28778456e-21 -2.4857494057e-18
        6.8632769982e-08 0 2.0181361816e-19 1.9979548615e-19 2.1772939001e-20 -6.4658292239e-19
        6.8632769971e-08 0 1.1541308087e-35 1.2171654563e-18 1.07194614e-20 -1.3097999181e-18
        6.8632769979e-08 0 -2.0181361816e-19 3.9458332653e-19 2.1772939001e-20 -3.0998523891e-18
        6.8632769971e-08 -1.7070454115e-19 2.4602752856e-19 -1.6680363006e-18 4.28778456e-21 1.1927816924e-19
        6.8632769974e-08 -1.0076392338e-19 -7.185251958e-36 2.4494817559e-18 -6.7656930408e-21 -8.5127283329e-20
        6.8632769972e-08 -3.0823305621e-20 -2.4602752856e-19 -1.2527966127e-18 4.28778456e-21 -2.1806619558e-18
        8.7643718721e-08 1.2715375899e-19 1.4329651163e-19 1.9139560661e-18 2.394820649e-21 6.5945086523e-19
        8.7643718722e-08 5.7261857963e-20 -1.8207154611e-35 5.7557883148e-19 -1.1485923634e-20 -2.6799553327e-19
        8.764371871e-08 -1.2630043063e-20 -1.4329651163e-19 -7.4363223546e-19 2.394820649e-21 9.6610954857e-19
        8.7643718713e-08 -2.8615795907e-36 1.9881948876e-19 5.7791635328e-19 1.9867795906e-20 6.4944106148e-19
        8.7643718714e-08 -1.0325068116e-35 -9.8010140971e-36 -9.4346337989e-20 5.9870516225e-21 3.9696397003e-19
        8.7643718707e-08 -9.1689622985e-37 -1.9881948876e-19 3.8336103326e-19 1.9867795906e-20 3.179375199e-18
        8.7643718714e-08 -1.2715375899e-19 2.5434246589e-19 1.3773033703e-18 2.394820649e-21 -8.5552982353e-19
        8.7643718702e-08 -5.7261857963e-20 1.272971806e-35 1.1122315273e-18 -1.1485923634e-20 4.102823303e-19
        8.7643718718e-08 1.2630043063e-20 -2.5434246589e-19 2.7062779521e-18 2.394820649e-21 3.3418609046e-18
        1.5181400827e-07 -8.9419389302e-20 -2.2784083179e-20 1.7031282213e-18 -1.7063465196e-20 2.4994029653e-18
        1.5181400827e-07 -7.859686874e-20 -1.3358634571e-35 -3.4439721853e-19 -3.9953032851e-20 -6.5131822906e-19
        1.5181400827e-07 -6.7774348179e-20 2.2784083179e-20 -4.7530588754e-19 -1.7063465196e-20 1.2727682319e-18
        1.5181400827e-07 -1.0435959017e-35 6.8774187439e-20 2.3292533452e-19 -1.9769095337e-20 1.8760757948e-18
        1.5181400827e-07 0 2.5065848571e-35 2.1231234535e-19 -4.2658662991e-20 3.9697845458e-19
        1.5181400827e-07 -2.6572255736e-36 -6.8774187439e-20 -7.2827669384e-19 -1.9769095337e-20 3.4278237815e-19
        1.5181400827e-07 8.9419389302e-20 1.6033245806e-19 6.2982282965e-19 -1.7063465196e-20 4.4726647994e-18
        1.5181400827e-07 7.859686874e-20 -1.2471452061e-35 1.4955548815e-18 -3.9953032851e-20 6.7859946078e-19
        1.5181400827e-07 6.7774348179e-20 -1.6033245806e-19 -1.686472042e-19 -1.7063465196e-20 4.8610191607e-19
        2.1598429783e-07 -3.0599253759e-19 -1.8886467798e-19 -1.4401232829e-18 -3.6521751042e-20 3.7260376986e-18
        2.1598429783e-07 -2.1445559544e-19 1.6005772595e-35 -1.2643732685e-18 -6.8420142068e-20 2.6866835517e-19
        2.1598429783e-07 -1.229186533e-19 1.8886467798e-19 -5.3818448209e-18 -3.6521751042e-20 -1.1805012348e-18
        2.1598429782e-07 0 -6.1271113881e-20 -4.5705670298e-19 -5.9405986579e-20 -5.7719367186e-19
        2.1598429782e-07 0 0 -1.3209810713e-18 -9.1304377605e-20 9.0309237028e-20
        2.1598429782e-07 0 6.1271113881e-20 -9.5827070634e-19 -5.9405986579e-20 6.4944106148e-19
        2.1598429783e-07 3.0599253759e-19 6.6322450221e-20 2.5464396005e-18 -3.6521751042e-20 3.7060180911e-18
        2.1598429782e-07 2.1445559544e-19 -2.1809144469e-35 1.8022135648e-18 -6.8420142068e-20 5.2526221846e-19
        2.1598429783e-07 1.229186533e-19 -6.6322450221e-20 2.8979396292e-18 -3.6521751042e-20 -4.573766359e-18
        2.6207361712e-07 -2.763210818e-19 -1.8673945004e-19 -4.4922310659e-18 -3.5536690604e-20 1.7917898992e-18
        2.6207361712e-07 -1.7013400735e-19 -2.9628653432e-35 -2.2965577139e-18 -6.2294957897e-20 -1.395462062e-19
        2.6207361713e-07 -6.3946932906e-20 1.8673945004e-19 -3.6082930525e-18 -3.5536690604e-20 -1.1214675925e-18
        2.6207361712e-07 -2.2640274012e-35 -7.9706380862e-20 -1.02459336e-18 -6.2083459215e-20 -7.8517244719e-19
        2.6207361713e-07 2.853943217e-35 2.4400668346e-36 -1.4098403826e-18 -8.8841726509e-20 -3.5298030576e-19
        2.6207361713e-07 3.1440145556e-35 7.9706380862e-20 -4.534556655e-19 -6.2083459215e-20 2.8813294449e-19
        2.6207361712e-07 2.763210818e-19 2.7326688313e-20 3.9408827258e-18 -3.5536690604e-20 2.1002230034e-18
        2.6207361712e-07 1.7013400735e-19 -1.8337682624e-37 -6.0993495553e-19 -6.2294957897e-20 6.6098230276e-20
        2.6207361712e-07 6.3946932906e-20 -2.7326688313e-20 2.3140527695e-18 -3.5536690604e-20 1.4485733013e-18
        4.1939259523e-07 4.2217777266e-20 -1.3355527091e-20 -2.058127767e-18 -1.2693252764e-20 5.6515516585e-19
        4.1939259523e-07 1.1803548777e-19 6.6848362649e-35 -2.6798810681e-18 -1.2778704283e-20 5.6951833305e-19
        4.1939259523e-07 1.9385319828e-19 1.3355527091e-20 -1.3083529275e-18 -1.2693252764e-20 2.4051072659e-18
        4.1939259523e-07 0 -1.3013721013e-20 -7.7543317983e-19 -3.164768039e-20 -9.3850178886e-19
        4.1939259523e-07 0 -3.8564440905e-35 -7.1985834506e-19 -3.173313191e-20 -6.5954441017e-19
        4.1939259523e-07 0 1.3013721013e-20 -7.4094818113e-19 -3.164768039e-20 -1.5518191555e-18
        4.1939259523e-07 -4.2217777266e-20 -1.2671914935e-20 1.6217764331e-18 -1.2693252764e-20 6.244280898e-19
        4.1939259523e-07 -1.1803548777e-19 7.6799659443e-36 -2.2661160136e-19 -1.2778704283e-20 2.5779992152e-19
        4.1939259523e-07 -1.9385319828e-19 1.2671914935e-20 -1.1550235858e-18 -1.2693252764e-20 1.1110723125e-20
        5.7671157334e-07 3.6075663633e-19 1.6002839585e-19 1.0084590664e-18 1.0150185076e-20 -4.8162200818e-20
[...]
      <PointData>
        <DataArray type="Float64" Name="displacement" NumberOfComponents="3" format="ascii" RangeMin="0" RangeMax="0.00065454697444">
          -0.00065454473409 0 0 -0.00065454697444 0 0
          -0.00065454697444 0 0 -0.00065454473409 0 0
          -0.00065454473409 0 0 -0.00065454697444 0 0
          -0.00065454697444 0 0 -0.00065454473409 0 0
          -0.00065453562525 0 0 -0.00065453562525 0 0
          -0.00065453562525 0 0 -0.00065453562525 0 0
          -0.00065451046169 0 0 -0.00065451046169 0 0
          -0.00065451046169 0 0 -0.00065451046169 0 0
          -0.00065444596036 0 0 -0.00065444596036 0 0
          -0.00065444596036 0 0 -0.00065444596036 0 0
          -0.00065428808019 0 0 -0.00065428808019 0 0
          -0.00065428808019 0 0 -0.00065428808019 0 0
          -0.00065391790738 0 0 -0.00065391790738 0 0
          -0.00065391790738 0 0 -0.00065391790738 0 0
          -0.00065308631567 0 0 -0.00065308631567 0 0
          -0.00065308631567 0 0 -0.00065308631567 0 0
          -0.00065129628116 0 0 -0.00065129628116 0 0
          -0.00065129628116 0 0 -0.00065129628116 0 0
          -0.00064760374979 0 0 -0.00064760374979 0 0
          -0.00064760374979 0 0 -0.00064760374979 0 0
          -0.00064030185774 0 0 -0.00064030185774 0 0
          -0.00064030185774 0 0 -0.00064030185774 0 0
          -0.00063915547947 0 0 -0.00063915547947 0 0
          -0.00063915547947 0 0 -0.00063915547947 0 0
          -0.00063792512956 0 0 -0.00063792512956 0 0
          -0.00063792512956 0 0 -0.00063792512956 0 0
          -0.00063660493824 0 0 -0.00063660493824 0 0
          -0.00063660493824 0 0 -0.00063660493824 0 0
          -0.00063518927543 0 0 -0.00063518927543 0 0
          -0.00063518927543 0 0 -0.00063518927543 0 0
          -0.00063367224807 0 0 -0.00063367224807 0 0
          -0.00063367224807 0 0 -0.00063367224807 0 0
          -0.00063204693924 0 0 -0.00063204693924 0 0
          -0.00063204693924 0 0 -0.00063204693924 0 0
          -0.00063030675809 0 0 -0.00063030675809 0 0
          -0.00063030675809 0 0 -0.00063030675809 0 0
          -0.00062844482034 0 0 -0.00062844482034 0 0
          -0.00062844482034 0 0 -0.00062844482034 0 0
          -0.00062645301808 0 0 -0.00062645301808 0 0
          -0.00062645301808 0 0 -0.00062645301808 0 0
          -0.00062432367893 0 0 -0.00062432367893 0 0
          -0.00062432367893 0 0 -0.00062432367893 0 0
          -0.00062204880575 0 0 -0.00062204880575 0 0
          -0.00062204880575 0 0 -0.00062204880575 0 0
          -0.00061961894434 0 0 -0.00061961894434 0 0
          -0.00061961894434 0 0 -0.00061961894434 0 0
          -0.00061702521325 0 0 -0.00061702521325 0 0
          -0.00061702521325 0 0 -0.00061702521325 0 0
          -0.00061425837451 0 0 -0.00061425837451 0 0
          -0.00061425837451 0 0 -0.00061425837451 0 0
          -0.00061130746149 0 0 -0.00061130746149 0 0
          -0.00061130746149 0 0 -0.00061130746149 0 0
          -0.00060816225039 0 0 -0.00060816225039 0 0
          -0.00060816225039 0 0 -0.00060816225039 0 0
          -0.00060481212951 0 0 -0.00060481212951 0 0
          -0.00060481212951 0 0 -0.00060481212951 0 0
          -0.00060124444339 0 0 -0.00060124444339 0 0
          -0.00060124444339 0 0 -0.00060124444339 0 0
          -0.00059744748845 0 0 -0.00059744748845 0 0
          -0.00059744748845 0 0 -0.00059744748845 0 0
          -0.00059340914288 0 0 -0.00059340914288 0 0
          -0.00059340914288 0 0 -0.00059340914288 0 0
          -0.00058911487693 0 0 -0.00058911487693 0 0
          -0.00058911487693 0 0 -0.00058911487693 0 0
          -0.00058455136733 0 0 -0.00058455136733 0 0
          -0.00058455136733 0 0 -0.00058455136733 0 0
          -0.00057970484409 0 0 -0.00057970484409 0 0
          -0.00057970484409 0 0 -0.00057970484409 0 0
          -0.00057455870994 0 0 -0.00057455870994 0 0
          -0.00057455870994 0 0 -0.00057455870994 0 0
          -0.00056909788153 0 0 -0.00056909788153 0 0
          -0.00056909788153 0 0 -0.00056909788153 0 0
          -0.00056330680321 0 0 -0.00056330680321 0 0
          -0.00056330680321 0 0 -0.00056330680321 0 0
          -0.00055716661064 0 0 -0.00055716661064 0 0
          -0.00055716661064 0 0 -0.00055716661064 0 0
          -0.00055066032186 0 0 -0.00055066032186 0 0
          -0.00055066032186 0 0 -0.00055066032186 0 0
          -0.00054377046087 0 0 -0.00054377046087 0 0
          -0.00054377046087 0 0 -0.00054377046087 0 0
          -0.00053647569228 0 0 -0.00053647569228 0 0
          -0.00053647569228 0 0 -0.00053647569228 0 0
          -0.0005287570013 0 0 -0.0005287570013 0 0
          -0.0005287570013 0 0 -0.0005287570013 0 0
          -0.0005205948623 0 0 -0.0005205948623 0 0
          -0.0005205948623 0 0 -0.0005205948623 0 0
          -0.00051196526238 0 0 -0.00051196526238 0 0
          -0.00051196526238 0 0 -0.00051196526238 0 0
          -0.00050284702668 0 0 -0.00050284702668 0 0
          -0.00050284702668 0 0 -0.00050284702668 0 0
          -0.00049321845876 0 0 -0.00049321845876 0 0
          -0.00049321845876 0 0 -0.00049321845876 0 0
          -0.0004830526614 0 0 -0.0004830526614 0 0
          -0.0004830526614 0 0 -0.0004830526614 0 0
          -0.00047232618219 0 0 -0.00047232618219 0 0
          -0.00047232618219 0 0 -0.00047232618219 0 0
          -0.00046101504362 0 0 -0.00046101504362 0 0
          -0.00046101504362 0 0 -0.00046101504362 0 0
          -0.00044908925916 0 0 -0.00044908925916 0 0
          -0.00044908925916 0 0 -0.00044908925916 0 0
          -0.00043652299397 0 0 -0.00043652299397 0 0
          -0.00043652299397 0 0 -0.00043652299397 0 0
          -0.00042328989295 0 0 -0.00042328989295 0 0
          -0.00042328989295 0 0 -0.00042328989295 0 0
          -0.00040935667938 0 0 -0.00040935667938 0 0
          -0.00040935667938 0 0 -0.00040935667938 0 0
          -0.00039469504651 0 0 -0.00039469504651 0 0
          -0.00039469504651 0 0 -0.00039469504651 0 0
          -0.00037927618156 0 0 -0.00037927618156 0 0
          -0.00037927618156 0 0 -0.00037927618156 0 0
          -0.00036306332308 0 0 -0.00036306332308 0 0
          -0.00036306332308 0 0 -0.00036306332308 0 0
          -0.00034602562099 0 0 -0.00034602562099 0 0
          -0.00034602562099 0 0 -0.00034602562099 0 0
          -0.00032813174393 0 0 -0.00032813174393 0 0
          -0.00032813174393 0 0 -0.00032813174393 0 0
          -0.00030934125952 0 0 -0.00030934125952 0 0
          -0.00030934125952 0 0 -0.00030934125952 0 0
          -0.00028962072361 0 0 -0.00028962072361 0 0
          -0.00028962072361 0 0 -0.00028962072361 0 0
          -0.00026893624676 0 0 -0.00026893624676 0 0
          -0.00026893624676 0 0 -0.00026893624676 0 0
          -0.0002472435499 0 0 -0.0002472435499 0 0
          -0.0002472435499 0 0 -0.0002472435499 0 0
          -0.00022450656682 0 0 -0.00022450656682 0 0
          -0.00022450656682 0 0 -0.00022450656682 0 0
          -0.00020068883426 0 0 -0.00020068883426 0 0
          -0.00020068883426 0 0 -0.00020068883426 0 0
          -0.00017574206263 0 0 -0.00017574206263 0 0
          -0.00017574206263 0 0 -0.00017574206263 0 0
          -0.0001496275605 0 0 -0.0001496275605 0 0
          -0.0001496275605 0 0 -0.0001496275605 0 0
          -0.00012230630035 0 0 -0.00012230630035 0 0
          -0.00012230630035 0 0 -0.00012230630035 0 0
          -9.3725831734e-05 0 0 -9.3725831734e-05 0 0
          -9.3725831734e-05 0 0 -9.3725831734e-05 0 0
          -6.3844861081e-05 0 0 -6.3844861081e-05 0 0
          -6.3844861081e-05 0 0 -6.3844861081e-05 0 0
          -3.2621832909e-05 0 0 -3.2621832909e-05 0 0
          -3.2621832909e-05 0 0 -3.2621832909e-05 0 0
          0 0 0 0 0 0
          0 0 0 0 0 0
          -0.00065454697444 0 8.6897480497e-21 -0.00065454697444 8.533976365e-21 0
          -0.00065454697444 -3.8003882172e-20 0 -0.00065454697444 0 -3.166427181e-20
          -0.00065454646026 0 0 -0.00065454646026 0 0
          -0.00065454646026 0 0 -0.00065454646026 0 0
          -0.00065454473409 0 -8.6234766584e-22 -0.00065454473409 -6.5861105278e-21 0
          -0.00065454473409 1.9182305355e-20 0 -0.00065454473409 0 1.2022105642e-20
          -0.00065454142232 0 0 -0.00065454142232 0 0
          -0.00065454142232 0 0 -0.00065454142232 0 0
          -0.00065453562525 0 1.5336801574e-20 -0.00065453562525 7.5270224605e-22 0
          -0.00065453562525 -2.8485144205e-20 0 -0.00065453562525 0 -1.1117466934e-20
          -0.00065452608994 0 0 -0.00065452608994 0 0
          -0.00065452608994 0 0 -0.00065452608994 0 0
          -0.00065451046169 0 -5.3142168521e-21 -0.00065451046169 -4.8839580176e-22 0
          -0.00065451046169 1.8006205049e-20 0 -0.00065451046169 0 6.730780282e-21
          -0.00065448560527 0 0 -0.00065448560527 0 0
          -0.00065448560527 0 0 -0.00065448560527 0 0
          -0.00065444596036 0 -5.8412983211e-21 -0.00065444596036 -1.2143738956e-20 0
          -0.00065444596036 -3.8806743421e-21 0 -0.00065444596036 0 9.7890950714e-21
          -0.00065438425964 0 0 -0.00065438425964 0 0
          -0.00065438425964 0 0 -0.00065438425964 0 0
          -0.00065428808019 0 9.5223143263e-21 -0.00065428808019 4.8583651585e-21 0
          -0.00065428808019 7.7559622461e-21 0 -0.00065428808019 0 -9.4130322682e-21
          -0.00065414143401 0 0 -0.00065414143401 0 0
          -0.00065414143401 0 0 -0.00065414143401 0 0
          -0.00065391790738 0 -1.6612570046e-20 -0.00065391790738 -8.3220639744e-21 0
          -0.00065391790738 -6.9386935098e-21 0 -0.00065391790738 0 2.7029017465e-20
          -0.00065358402309 0 0 -0.00065358402309 0 0
          -0.00065358402309 0 0 -0.00065358402309 0 0
          -0.00065308631567 0 7.5820763229e-21 -0.00065308631567 6.633915204e-21 0
          -0.00065308631567 -9.5223563715e-21 0 -0.00065308631567 0 2.8550808257e-21
          -0.00065235806801 0 0 -0.00065235806801 0 0
          -0.00065235806801 0 0 -0.00065235806801 0 0
          -0.00065129628116 0 -1.3041959081e-20 -0.00065129628116 -1.7292058438e-20 0
          -0.00065129628116 -7.9195355002e-21 0 -0.00065129628116 0 1.9027918024e-21
          -0.0006497744421 0 0 -0.0006497744421 0 0
          -0.0006497744421 0 0 -0.0006497744421 0 0
          -0.00064760374979 0 -8.1946040225e-21 -0.00064760374979 -1.819687147e-21 0
          -0.00064760374979 1.1252480531e-20 0 -0.00064760374979 0 -1.7359843324e-20
          -0.0006445559784 0 0 -0.0006445559784 0 0
          -0.0006445559784 0 0 -0.0006445559784 0 0
          -0.00064030185774 0 6.587162083e-20 -0.00064030185774 1.0529877368e-20 0
          -0.00064030185774 -8.0498659814e-21 0 -0.00064030185774 0 3.8416642793e-20
          -0.00063973885751 0 0 -0.00063973885751 0 0
          -0.00063973885751 0 0 -0.00063973885751 0 0
          -0.00063915547947 0 7.3531663374e-20 -0.00063915547947 1.3900009525e-20 0
          -0.00063915547947 -1.2180847873e-20 0 -0.00063915547947 0 4.9678944113e-20
          -0.00063855115913 0 0 -0.00063855115913 0 0
          -0.00063855115913 0 0 -0.00063855115913 0 0
          -0.00063792512956 0 8.5060883792e-20 -0.00063792512956 2.0827352072e-20 0
          -0.00063792512956 -1.3223937587e-20 0 -0.00063792512956 0 5.3670061619e-20
          -0.00063727659829 0 0 -0.00063727659829 0 0
          -0.00063727659829 0 0 -0.00063727659829 0 0
          -0.00063660493824 0 1.1480008126e-19 -0.00063660493824 3.2084827713e-20 0
          -0.00063660493824 -3.5582977344e-20 0 -0.00063660493824 0 4.7731897522e-20
          -0.00063590941699 0 0 -0.00063590941699 0 0
          -0.00063590941699 0 0 -0.00063590941699 0 0
          -0.00063518927543 0 1.4265871602e-19 -0.00063518927543 4.1206898827e-20 0
          -0.00063518927543 -5.5962273244e-20 0 -0.00063518927543 0 3.8529909767e-20
          -0.00063444385458 0 0 -0.00063444385458 0 0
          -0.00063444385458 0 0 -0.00063444385458 0 0
          -0.00063367224807 0 1.4443394862e-19 -0.00063367224807 3.4594626167e-20 0
          -0.00063367224807 -6.7055655165e-20 0 -0.00063367224807 0 4.1282427683e-20
          -0.00063287351963 0 0 -0.00063287351963 0 0
          -0.00063287351963 0 0 -0.00063287351963 0 0
          -0.00063204693924 0 1.3978938996e-19 -0.00063204693924 3.4498521052e-20 0
          -0.00063204693924 -7.188635223e-20 0 -0.00063204693924 0 3.7363421251e-20
          -0.00063119164832 0 0 -0.00063119164832 0 0
          -0.00063119164832 0 0 -0.00063119164832 0 0
          -0.00063030675809 0 1.4905328783e-19 -0.00063030675809 4.46783829e-20 0
          -0.00063030675809 -9.6060384032e-20 0 -0.00063030675809 0 8.7932839955e-21
          -0.00062939150399 0 0 -0.00062939150399 0 0
          -0.00062939150399 0 0 -0.00062939150399 0 0
          -0.00062844482034 0 1.406953878e-19 -0.00062844482034 2.7867864596e-20 0
          -0.00062844482034 -9.442380616e-20 0 -0.00062844482034 0 1.2824906445e-20
          -0.0006274656066 0 0 -0.0006274656066 0 0
          -0.0006274656066 0 0 -0.0006274656066 0 0
          -0.00062645301808 0 1.2019650063e-19 -0.00062645301808 2.619929845e-22 0
          -0.00062645301808 -8.1858690046e-20 0 -0.00062645301808 0 2.2796442763e-20
          -0.00062540605383 0 0 -0.00062540605383 0 0
          -0.00062540605383 0 0 -0.00062540605383 0 0
          -0.00062432367893 0 1.0064937145e-19 -0.00062432367893 -4.398347805e-20 0
          -0.00062432367893 -6.0178779205e-20 0 -0.00062432367893 0 6.14553205e-20
          -0.00062320501178 0 0 -0.00062320501178 0 0
          -0.00062320501178 0 0 -0.00062320501178 0 0
          -0.00062204880575 0 1.1248893567e-19 -0.00062204880575 -3.053461792e-20 0
          -0.00062204880575 -6.6371068703e-20 0 -0.00062204880575 0 6.6528138357e-20
          -0.00062085377372 0 0 -0.00062085377372 0 0
          -0.00062085377372 0 0 -0.00062085377372 0 0
          -0.00061961894434 0 9.918930485e-20 -0.00061961894434 -4.9186420741e-21 0
          -0.00061961894434 -6.2979858098e-20 0 -0.00061961894434 0 3.8375070526e-20
          -0.00061834315702 0 0 -0.00061834315702 0 0
          -0.00061834315702 0 0 -0.00061834315702 0 0
          -0.00061702521325 0 8.5320041235e-20 -0.00061702521325 2.0186359089e-20 0
          -0.00061702521325 -4.5061516949e-20 0 -0.00061702521325 0 1.6287696257e-20
          -0.00061566410274 0 0 -0.00061566410274 0 0
          -0.00061566410274 0 0 -0.00061566410274 0 0
          -0.00061425837451 0 7.1571949089e-20 -0.00061425837451 4.9400880609e-20 0
          -0.00061425837451 -2.5734742914e-20 0 -0.00061425837451 0 -1.3379909819e-20
          -0.00061280653083 0 0 -0.00061280653083 0 0
          -0.00061280653083 0 0 -0.00061280653083 0 0
          -0.00061130746149 0 5.936754218e-20 -0.00061130746149 7.2592755617e-20 0
          -0.00061130746149 -1.6866292589e-21 0 -0.00061130746149 0 -2.4469283613e-20
          -0.00060975982815 0 0 -0.00060975982815 0 0
          -0.00060975982815 0 0 -0.00060975982815 0 0
          -0.00060816225039 0 5.6997640172e-20 -0.00060816225039 9.3332339409e-20 0
          -0.00060816225039 5.7865565638e-21 0 -0.00060816225039 0 -3.9855616033e-20
          -0.00060651357765 0 0 -0.00060651357765 0 0
          -0.00060651357765 0 0 -0.00060651357765 0 0
          -0.00060481212951 0 5.2692441111e-20 -0.00060481212951 1.1570409983e-19 0
          -0.00060481212951 -6.015419868e-21 0 -0.00060481212951 0 -7.6223056451e-20
          -0.00060305617174 0 0 -0.00060305617174 0 0
          -0.00060305617174 0 0 -0.00060305617174 0 0
          -0.00060124444339 0 4.6636476177e-20 -0.00060124444339 1.2795222298e-19 0
          -0.00060124444339 1.3942545307e-21 0 -0.00060124444339 0 -8.7491997561e-20
          -0.00059937540941 0 0 -0.00059937540941 0 0
          -0.00059937540941 0 0 -0.00059937540941 0 0
          -0.00059744748845 0 4.434119148e-20 -0.00059744748845 1.5782786238e-19 0
          -0.00059744748845 -3.9322749353e-22 0 -0.00059744748845 0 -1.2317164572e-19
          -0.00059545937849 0 0 -0.00059545937849 0 0
          -0.00059545937849 0 0 -0.00059545937849 0 0
          -0.00059340914288 0 4.2347682014e-20 -0.00059340914288 1.7710014964e-19 0
          -0.00059340914288 5.2896173142e-22 0 -0.00059340914288 0 -1.5215062187e-19
          -0.00059129478346 0 0 -0.00059129478346 0 0
          -0.00059129478346 0 0 -0.00059129478346 0 0
          -0.00058911487693 0 4.5666972746e-20 -0.00058911487693 1.9136640131e-19 0
          -0.00058911487693 -4.3516770758e-20 0 -0.00058911487693 0 -1.9136066231e-19
          -0.00058686767217 0 0 -0.00058686767217 0 0
          -0.00058686767217 0 0 -0.00058686767217 0 0
          -0.00058455136733 0 2.0960285703e-20 -0.00058455136733 1.7707980765e-19 0
          -0.00058455136733 -5.5467363803e-20 0 -0.00058455136733 0 -2.0491752528e-19
          -0.00058216449833 0 0 -0.00058216449833 0 0
          -0.00058216449833 0 0 -0.00058216449833 0 0
          -0.00057970484409 0 2.2799479018e-20 -0.00057970484409 1.7585011257e-19 0
          -0.00057970484409 -2.5761120069e-20 0 -0.00057970484409 0 -1.9411614462e-19
          -0.0005771701134 0 0 -0.0005771701134 0 0
          -0.0005771701134 0 0 -0.0005771701134 0 0
          -0.00057455870994 0 1.2865805109e-20 -0.00057455870994 1.9016295721e-19 0
          -0.00057455870994 2.1618905473e-20 0 -0.00057455870994 0 -1.5512028934e-19
          -0.00057186864668 0 0 -0.00057186864668 0 0
          -0.00057186864668 0 0 -0.00057186864668 0 0
          -0.00056909788153 0 2.7361803185e-21 -0.00056909788153 1.756826517e-19 0
          -0.00056909788153 7.5758342451e-20 0 -0.00056909788153 0 -1.0251386885e-19
          -0.00056624477876 0 0 -0.00056624477876 0 0
          -0.00056624477876 0 0 -0.00056624477876 0 0
          -0.00056330680321 0 3.110960574e-20 -0.00056330680321 2.004941611e-19 0
          -0.00056330680321 9.9319409603e-20 0 -0.00056330680321 0 -7.8424683956e-20
          -0.00056028134017 0 0 -0.00056028134017 0 0
          -0.00056028134017 0 0 -0.00056028134017 0 0
          -0.00055716661064 0 8.3443696839e-20 -0.00055716661064 2.3684995953e-19 0
          -0.00055716661064 8.3905614239e-20 0 -0.00055716661064 0 -7.6784014337e-20
          -0.00055396037193 0 0 -0.00055396037193 0 0
          -0.00055396037193 0 0 -0.00055396037193 0 0
          -0.00055066032186 0 1.6466241948e-19 -0.00055066032186 2.582640825e-19 0
          -0.00055066032186 2.9115274193e-20 0 -0.00055066032186 0 -5.8649326461e-20
          -0.00054726464486 0 0 -0.00054726464486 0 0
          -0.00054726464486 0 0 -0.00054726464486 0 0
          -0.00054377046087 0 2.7398398375e-19 -0.00054377046087 2.8958049599e-19 0
          -0.00054377046087 -4.9735925865e-20 0 -0.00054377046087 0 -7.5152991572e-20
          -0.00054017479991 0 0 -0.00054017479991 0 0
          -0.00054017479991 0 0 -0.00054017479991 0 0
          -0.00053647569228 0 3.7303239051e-19 -0.00053647569228 2.7752377095e-19 0
          -0.00053647569228 -1.2046333777e-19 0 -0.00053647569228 0 -4.8931553678e-20
          -0.00053267062 0 0 -0.00053267062 0 0
          -0.00053267062 0 0 -0.00053267062 0 0
          -0.0005287570013 0 4.7452403197e-19 -0.0005287570013 2.6414603238e-19 0
          -0.0005287570013 -2.079992593e-19 0 -0.0005287570013 0 -2.4429017334e-21
          -0.00052473283434 0 0 -0.00052473283434 0 0
          -0.00052473283434 0 0 -0.00052473283434 0 0
          -0.0005205948623 0 6.0435796846e-19 -0.0005205948623 2.3527285895e-19 0
          -0.0005205948623 -3.0356532421e-19 0 -0.0005205948623 0 4.1644342219e-20
          -0.00051633972716 0 0 -0.00051633972716 0 0
          -0.00051633972716 0 0 -0.00051633972716 0 0
          -0.00051196526238 0 6.9556982988e-19 -0.00051196526238 2.0223608084e-19 0
          -0.00051196526238 -3.7588429057e-19 0 -0.00051196526238 0 1.1531998581e-19
          -0.00050746865563 0 0 -0.00050746865563 0 0
          -0.00050746865563 0 0 -0.00050746865563 0 0
          -0.00050284702668 0 7.6475305068e-19 -0.00050284702668 1.7545625085e-19 0