<?xml version="1.0"?>
<VTKFile type="UnstructuredGrid" version="0.1" byte_order="LittleEndian" header_type="UInt32">
  <UnstructuredGrid>
    <FieldData>
      <DataArray type="Int8" Name="IntegrationPointMetaData" NumberOfTuples="237" format="ascii" RangeMin="34" RangeMax="125">
        123 34 105 110 116 101
        103 114 97 116 105 111
        110 95 112 111 105 110
        116 95 97 114 114 97
        121 115 34 58 91 123
        34 105 110 116 101 103
        114 97 116 105 111 110
        95 111 114 100 101 114
        34 58 50 44 34 110
        97 109 101 34 58 34
        115 105 103 109 97 95
        105 112 34 44 34 110
        117 109 98 101 114 95
        111 102 95 99 111 109
        112 111 110 101 110 116
        115 34 58 54 125 44
        123 34 105 110 116 101
        103 114 97 116 105 111
        110 95 111 114 100 101
        114 34 58 50 44 34
        110 97 109 101 34 58
        34 101 112 115 105 108
        111 110 95 105 112 34
        44 34 110 117 109 98
        101 114 95 111 102 95
        99 111 109 112 111 110
        101 110 116 115 34 58
        54 125 44 123 34 105
        110 116 101 103 114 97
        116 105 111 110 95 111
        114 100 101 114 34 58
        50 44 34 110 97 109
        101 34 58 34 101 112
        115 105 108 111 110 95
        109 95 105 112 34 44
        34 110 117 109 98 101
        114 95 111 102 95 99
        111 109 112 111 110 101
        110 116 115 34 58 54
        125 93 125
      </DataArray>
      <DataArray type="Int8" Name="OGS_VERSION" NumberOfTuples="40" format="ascii" RangeMin="45" RangeMax="121">
        54 46 50 46 48 45
        49 53 45 103 53 51
        56 49 101 101 99 99
        100 46 100 105 114 116
        121 46 50 48 49 57
        48 52 48 49 49 53
        48 52 49 50
      </DataArray>
      <DataArray type="Float64" Name="epsilon_ip" NumberOfComponents="6" NumberOfTuples="1890" format="ascii" RangeMin="1.4712711301e-12" RangeMax="0.002482563714">
        1.4712731901e-12 -2.2137950299e-19 9.7702581039e-21 -1.0967959753e-18 -2.5967843811e-20 1.0701373433e-18
        1.4712749248e-12 -8.9654174552e-20 -1.8335463766e-38 4.353767919e-19 -3.1988277418e-20 -6.5418624143e-20
        1.4712734069e-12 4.2071153888e-20 -9.7702581039e-21 8.2716258043e-19 -2.5967843811e-20 -8.4647942756e-19
        1.4712711301e-12 4.7605629089e-37 3.3851992532e-20 -8.7475710568e-20 -5.8899175921e-20 1.532898164e-19
        1.4712731901e-12 9.5211258177e-37 -1.7577726061e-37 3.430275579e-20 -6.4919609528e-20 -2.1092665786e-19
        1.4712735153e-12 4.7605629089e-37 -3.3851992532e-20 3.1501132042e-20 -5.8899175921e-20 -3.8371860688e-20
        1.4712753043e-12 2.2137950299e-19 5.793372696e-20 -1.8640300912e-19 -2.5967843811e-20 -5.527298657e-19
        1.471273949e-12 8.9654174552e-20 5.4223897483e-37 1.6705044398e-19 -3.1988277418e-20 -4.9776008569e-20
        1.4712722956e-12 -4.2071153888e-20 -5.793372696e-20 -5.5280149459e-19 -2.5967843811e-20 4.726601067e-19
        2.4562154611e-11 -9.8950992707e-20 2.1175232293e-20 -5.7930944715e-19 -1.1918639618e-20 -3.1680483858e-21
        2.4562154394e-11 -4.0258206215e-20 -7.2851243021e-37 1.3721102316e-20 -1.5123402421e-20 4.1373556948e-19
        2.4562154394e-11 1.8434580277e-20 -2.1175232293e-20 -8.3230385726e-20 -1.1918639618e-20 -3.1680483858e-21
        2.4562154719e-11 0 3.3994283507e-20 8.5019798809e-20 -2.6591836241e-20 6.132778414e-19
        2.4562154611e-11 0 0 3.430275579e-20 -2.9796599044e-20 1.5323052849e-19
        2.4562154177e-11 0 -3.3994283507e-20 6.0250383604e-20 -2.6591836241e-20 1.0732658664e-18
        2.456215499e-11 9.8950992707e-20 4.6813334721e-20 -2.7265076381e-19 -1.1918639618e-20 -1.913527773e-18
        2.4562154719e-11 4.0258206215e-20 -5.7601974632e-37 3.2037978565e-19 -1.5123402421e-20 2.7604884296e-19
        2.4562154773e-11 -1.8434580277e-20 -4.6813334721e-20 3.7675763928e-19 -1.1918639618e-20 -8.4022238133e-19
        4.7653039284e-11 2.3477517578e-20 3.2580206482e-20 -5.7930944715e-19 2.1305645759e-21 -3.1680483858e-21
        4.7653036898e-11 9.1377621221e-21 0 1.3721102316e-20 1.7414725758e-21 3.7540323321e-19
        4.765303885e-11 -5.2019933339e-21 -3.2580206482e-20 -6.965477524e-19 2.1305645759e-21 1.223466685e-18
        4.7653040043e-11 0 3.4136574482e-20 -6.8309542859e-20 5.7155034399e-21 6.132778414e-19
        4.7653036898e-11 0 1.3713083038e-38 3.430275579e-20 5.3264114398e-21 -3.0675749737e-19
        4.7653036139e-11 0 -3.4136574482e-20 1.3691505444e-19 5.7155034399e-21 6.132778414e-19
        4.7653036926e-11 -2.3477517578e-20 3.5692942483e-20 -7.3263878882e-19 2.1305645759e-21 3.0974768118e-19
        4.7653034622e-11 -9.1377621221e-21 4.9085790595e-37 3.2037978565e-19 1.7414725758e-21 7.7224950364e-21
        4.7653036953e-11 5.2019933339e-21 -3.5692942483e-20 -1.5989505656e-19 2.1305645759e-21 -7.635577105e-19
        5.6617020967e-11 5.0539897696e-20 1.6201978208e-20 1.1640540501e-19 3.1197030336e-21 7.8544910258e-19
        5.6617021401e-11 2.3246179609e-20 -7.3698067252e-36 1.339096992e-19 9.7582806231e-22 -5.8407942759e-20
        5.6617025955e-11 -4.0475384774e-21 -1.6201978208e-20 3.641698715e-20 3.1197030336e-21 -8.2450898493e-19
        5.661702281e-11 -4.5316014856e-37 2.4777478093e-20 -3.0019796602e-20 9.9431325552e-21 -3.7434981312e-19
        5.6617022702e-11 -2.6323568113e-37 -2.3969756859e-36 -2.3062769939e-19 7.7992575839e-21 2.7159402886e-19
        5.6617024654e-11 2.3389532843e-37 -2.4777478093e-20 2.3958026762e-19 9.9431325552e-21 1.0439465973e-18
        5.6617022052e-11 -5.0539897696e-20 3.3352977978e-20 3.9431483678e-19 3.1197030336e-21 7.9454064776e-19
        5.6617022485e-11 -2.3246179609e-20 -1.5398908143e-37 3.44737544e-19 9.7582806231e-22 -9.7969112264e-20
        5.6617026388e-11 4.0475384774e-21 -3.3352977978e-20 2.2807866423e-19 3.1197030336e-21 -1.9251698923e-19
        1.528594638e-10 2.1111031339e-20 -5.1486641062e-20 -8.8981839969e-19 -7.5303350867e-21 1.8802394242e-20
        1.5285946293e-10 2.2333670487e-20 -5.2524350473e-36 -2.3024748726e-19 -1.852017793e-20 1.2367065114e-19
        1.5285946445e-10 2.3556309635e-20 5.1486641062e-20 6.2098510226e-19 -7.5303350867e-21 3.2546107758e-19
        1.5285946391e-10 -1.418081815e-36 -7.5272696894e-21 9.4560293504e-20 -7.8359948737e-21 1.0822789327e-18
        1.5285946337e-10 0 6.2266449294e-36 2.2936032561e-19 -1.8825837717e-20 -4.3755416177e-19
        1.528594638e-10 1.330140093e-36 7.5272696894e-21 -1.916299645e-20 -7.8359948737e-21 7.7562024939e-19
        1.5285946424e-10 -2.1111031339e-20 3.6432101683e-20 3.3681633365e-19 -7.5303350867e-21 -2.3084932464e-19
        1.5285946359e-10 -2.2333670487e-20 -3.6644946706e-36 3.0640520858e-19 -1.852017793e-20 7.4526387832e-20
        1.5285946359e-10 -2.3556309635e-20 -3.6432101683e-20 5.0598809601e-19 -7.5303350867e-21 -9.9749603298e-19
        2.4910190273e-10 -8.317835017e-21 -1.1917526033e-19 -6.2149205177e-19 -1.8180373207e-20 6.3211976092e-19
        2.4910190317e-10 2.1421161365e-20 6.5233909391e-36 1.5307586691e-19 -3.8016183922e-20 -2.5965269243e-19
        2.4910190273e-10 5.1160157747e-20 1.1917526033e-19 3.1432641892e-19 -1.8180373207e-20 -1.2078323391e-18
        2.4910190187e-10 0 -3.9832017472e-20 5.6227958087e-20 -2.5615122303e-20 6.2229090772e-19
        2.4910190534e-10 0 0 1.5269565478e-19 -4.5450933018e-20 -2.8422483071e-19
        2.4910190241e-10 0 3.9832017472e-20 -5.7495331867e-20 -2.5615122303e-20 -2.9768514229e-19
        2.4910190303e-10 8.317835017e-21 3.9511225388e-20 1.0651307066e-18 -1.8180373207e-20 7.657913962e-19
        2.4910190387e-10 -2.1421161365e-20 -1.7004844146e-36 4.5973455025e-19 -3.8016183922e-20 1.5119105071e-19
        2.4910190306e-10 -5.1160157747e-20 -3.9511225388e-20 2.3766174809e-19 -1.8180373207e-20 -1.8408074122e-18
        2.97258936e-10 -1.6585515488e-20 -1.1078162209e-19 -1.4346374357e-19 -1.8564876487e-20 5.8650256467e-19
        2.9725893708e-10 2.0954031671e-20 -1.654758668e-35 3.4479858037e-19 -3.7027304428e-20 -5.7453876037e-20
        2.9725893275e-10 5.8493578829e-20 1.1078162209e-19 -1.060813134e-19 -1.8564876487e-20 -1.0234555228e-18
        2.9725893546e-10 6.2155582682e-38 -3.6931910324e-20 -1.9095539149e-19 -2.7949763277e-20 9.8489879255e-19
        2.972589399e-10 2.0457091406e-37 1.5031130797e-36 -5.7979599086e-20 -4.6412191218e-20 -2.0185034299e-19
        2.972589347e-10 -1.5376651696e-37 3.6931910324e-20 5.5830025606e-20 -2.7949763277e-20 -3.5673294704e-19
        2.9725893459e-10 1.6585515488e-20 3.6917801439e-20 1.6677391049e-18 -1.8564876487e-20 -5.2373866657e-19
        2.9725893752e-10 -2.0954031671e-20 1.0015133694e-36 1.3397073558e-19 -3.7027304428e-20 -1.2583582975e-19
        2.9725893155e-10 -5.8493578829e-20 -3.6917801439e-20 1.2547165939e-18 -1.8564876487e-20 -1.595814801e-19
        7.4298486851e-10 -1.5568464225e-20 -1.4248334885e-20 -4.5970551077e-19 -9.2361806868e-21 -2.6814802001e-20
        7.4298486938e-10 2.0261253488e-20 3.77793243e-35 1.5313690328e-19 -1.4133022289e-20 2.3962157522e-19
        7.4298486851e-10 5.6090971201e-20 1.4248334885e-20 1.1432961524e-19 -9.2361806868e-21 2.7984388134e-19
        7.4298486894e-10 0 5.3390315231e-21 -2.292877269e-19 -1.8193610115e-20 -6.2505929496e-19
        7.4298486938e-10 0 -2.4442798391e-35 1.5284824571e-19 -2.3090451717e-20 -1.060193369e-19
        7.4298486883e-10 0 -5.3390315231e-21 7.4996193315e-20 -1.8193610115e-20 1.2148928051e-18
        7.4298486886e-10 1.5568464225e-20 2.4926397931e-20 3.8614849657e-20 -9.2361806868e-21 -3.5001389998e-20
        7.4298486981e-10 -2.0261253488e-20 6.1237446913e-37 -3.0685112172e-19 -1.4133022289e-20 2.7665376302e-19
        7.4298486864e-10 -5.6090971201e-20 -2.4926397931e-20 -2.3066140351e-19 -9.2361806868e-21 1.2682980142e-18
        1.1887108045e-09 -1.4551412962e-20 8.2284952318e-20 -6.1303485243e-19 9.251511338e-23 -2.6814802001e-20
[...]
      <PointData>
        <DataArray type="Float64" Name="displacement" NumberOfComponents="3" format="ascii" RangeMin="0" RangeMax="0.0002321663423">
          -0.00023216634083 0 0 -0.0002321663423 0 0
          -0.0002321663423 0 0 -0.00023216634083 0 0
          -0.00023216634083 0 0 -0.0002321663423 0 0
          -0.0002321663423 0 0 -0.00023216634083 0 0
          -0.00023216633166 0 0 -0.00023216633166 0 0
          -0.00023216633166 0 0 -0.00023216633166 0 0
          -0.00023216628708 0 0 -0.00023216628708 0 0
          -0.00023216628708 0 0 -0.00023216628708 0 0
          -0.00023216608356 0 0 -0.00023216608356 0 0
          -0.00023216608356 0 0 -0.00023216608356 0 0
          -0.00023216520858 0 0 -0.00023216520858 0 0
          -0.00023216520858 0 0 -0.00023216520858 0 0
          -0.00023216167629 0 0 -0.00023216167629 0 0
          -0.00023216167629 0 0 -0.00023216167629 0 0
          -0.00023214832842 0 0 -0.00023214832842 0 0
          -0.00023214832842 0 0 -0.00023214832842 0 0
          -0.00023210125277 0 0 -0.00023210125277 0 0
          -0.00023210125277 0 0 -0.00023210125277 0 0
          -0.00023194670909 0 0 -0.00023194670909 0 0
          -0.00023194670909 0 0 -0.00023194670909 0 0
          -0.00023147552729 0 0 -0.00023147552729 0 0
          -0.00023147552729 0 0 -0.00023147552729 0 0
          -0.0002313851623 0 0 -0.0002313851623 0 0
          -0.0002313851623 0 0 -0.0002313851623 0 0
          -0.00023128377056 0 0 -0.00023128377056 0 0
          -0.00023128377056 0 0 -0.00023128377056 0 0
          -0.00023117008163 0 0 -0.00023117008163 0 0
          -0.00023117008163 0 0 -0.00023117008163 0 0
          -0.00023104274453 0 0 -0.00023104274453 0 0
          -0.00023104274453 0 0 -0.00023104274453 0 0
          -0.00023090028043 0 0 -0.00023090028043 0 0
          -0.00023090028043 0 0 -0.00023090028043 0 0
          -0.0002307409976 0 0 -0.0002307409976 0 0
          -0.0002307409976 0 0 -0.0002307409976 0 0
          -0.00023056310685 0 0 -0.00023056310685 0 0
          -0.00023056310685 0 0 -0.00023056310685 0 0
          -0.00023036465674 0 0 -0.00023036465674 0 0
          -0.00023036465674 0 0 -0.00023036465674 0 0
          -0.00023014341754 0 0 -0.00023014341754 0 0
          -0.00023014341754 0 0 -0.00023014341754 0 0
          -0.00022989704437 0 0 -0.00022989704437 0 0
          -0.00022989704437 0 0 -0.00022989704437 0 0
          -0.00022962298904 0 0 -0.00022962298904 0 0
          -0.00022962298904 0 0 -0.00022962298904 0 0
          -0.00022931834284 0 0 -0.00022931834284 0 0
          -0.00022931834284 0 0 -0.00022931834284 0 0
          -0.00022898006483 0 0 -0.00022898006483 0 0
          -0.00022898006483 0 0 -0.00022898006483 0 0
          -0.00022860486254 0 0 -0.00022860486254 0 0
          -0.00022860486254 0 0 -0.00022860486254 0 0
          -0.00022818898058 0 0 -0.00022818898058 0 0
          -0.00022818898058 0 0 -0.00022818898058 0 0
          -0.00022772851688 0 0 -0.00022772851688 0 0
          -0.00022772851688 0 0 -0.00022772851688 0 0
          -0.0002272192622 0 0 -0.0002272192622 0 0
          -0.0002272192622 0 0 -0.0002272192622 0 0
          -0.00022665641811 0 0 -0.00022665641811 0 0
          -0.00022665641811 0 0 -0.00022665641811 0 0
          -0.00022603503048 0 0 -0.00022603503048 0 0
          -0.00022603503048 0 0 -0.00022603503048 0 0
          -0.00022534977517 0 0 -0.00022534977517 0 0
          -0.00022534977517 0 0 -0.00022534977517 0 0
          -0.00022459458426 0 0 -0.00022459458426 0 0
          -0.00022459458426 0 0 -0.00022459458426 0 0
          -0.00022376323475 0 0 -0.00022376323475 0 0
          -0.00022376323475 0 0 -0.00022376323475 0 0
          -0.00022284906393 0 0 -0.00022284906393 0 0
          -0.00022284906393 0 0 -0.00022284906393 0 0
          -0.00022184447776 0 0 -0.00022184447776 0 0
          -0.00022184447776 0 0 -0.00022184447776 0 0
          -0.00022074174254 0 0 -0.00022074174254 0 0
          -0.00022074174254 0 0 -0.00022074174254 0 0
          -0.00021953260928 0 0 -0.00021953260928 0 0
          -0.00021953260928 0 0 -0.00021953260928 0 0
          -0.00021820767197 0 0 -0.00021820767197 0 0
          -0.00021820767197 0 0 -0.00021820767197 0 0
          -0.00021675742176 0 0 -0.00021675742176 0 0
          -0.00021675742176 0 0 -0.00021675742176 0 0
          -0.00021517175467 0 0 -0.00021517175467 0 0
          -0.00021517175467 0 0 -0.00021517175467 0 0
          -0.00021343913986 0 0 -0.00021343913986 0 0
          -0.00021343913986 0 0 -0.00021343913986 0 0
          -0.00021154801032 0 0 -0.00021154801032 0 0
          -0.00021154801032 0 0 -0.00021154801032 0 0
          -0.00020948612178 0 0 -0.00020948612178 0 0
          -0.00020948612178 0 0 -0.00020948612178 0 0
          -0.00020723948274 0 0 -0.00020723948274 0 0
          -0.00020723948274 0 0 -0.00020723948274 0 0
          -0.00020479417194 0 0 -0.00020479417194 0 0
          -0.00020479417194 0 0 -0.00020479417194 0 0
          -0.00020213550921 0 0 -0.00020213550921 0 0
          -0.00020213550921 0 0 -0.00020213550921 0 0
          -0.0001992466889 0 0 -0.0001992466889 0 0
          -0.0001992466889 0 0 -0.0001992466889 0 0
          -0.00019611113372 0 0 -0.00019611113372 0 0
          -0.00019611113372 0 0 -0.00019611113372 0 0
          -0.0001927114292 0 0 -0.0001927114292 0 0
          -0.0001927114292 0 0 -0.0001927114292 0 0
          -0.00018902759157 0 0 -0.00018902759157 0 0
          -0.00018902759157 0 0 -0.00018902759157 0 0
          -0.00018504008843 0 0 -0.00018504008843 0 0
          -0.00018504008843 0 0 -0.00018504008843 0 0
          -0.00018072847919 0 0 -0.00018072847919 0 0
          -0.00018072847919 0 0 -0.00018072847919 0 0
          -0.00017606923546 0 0 -0.00017606923546 0 0
          -0.00017606923546 0 0 -0.00017606923546 0 0
          -0.00017103958341 0 0 -0.00017103958341 0 0
          -0.00017103958341 0 0 -0.00017103958341 0 0
          -0.00016561578112 0 0 -0.00016561578112 0 0
          -0.00016561578112 0 0 -0.00016561578112 0 0
          -0.00015977039569 0 0 -0.00015977039569 0 0
          -0.00015977039569 0 0 -0.00015977039569 0 0
          -0.00015347714894 0 0 -0.00015347714894 0 0
          -0.00015347714894 0 0 -0.00015347714894 0 0
          -0.00014670874961 0 0 -0.00014670874961 0 0
          -0.00014670874961 0 0 -0.00014670874961 0 0
          -0.00013943351683 0 0 -0.00013943351683 0 0
          -0.00013943351683 0 0 -0.00013943351683 0 0
          -0.00013162143916 0 0 -0.00013162143916 0 0
          -0.00013162143916 0 0 -0.00013162143916 0 0
          -0.00012324146617 0 0 -0.00012324146617 0 0
          -0.00012324146617 0 0 -0.00012324146617 0 0
          -0.00011425735132 0 0 -0.00011425735132 0 0
          -0.00011425735132 0 0 -0.00011425735132 0 0
          -0.00010463516567 0 0 -0.00010463516567 0 0
          -0.00010463516567 0 0 -0.00010463516567 0 0
          -9.4339938014e-05 0 0 -9.4339938014e-05 0 0
          -9.4339938014e-05 0 0 -9.4339938014e-05 0 0
          -8.3330573139e-05 0 0 -8.3330573139e-05 0 0
          -8.3330573139e-05 0 0 -8.3330573139e-05 0 0
          -7.1569094526e-05 0 0 -7.1569094526e-05 0 0
          -7.1569094526e-05 0 0 -7.1569094526e-05 0 0
          -5.9016505748e-05 0 0 -5.9016505748e-05 0 0
          -5.9016505748e-05 0 0 -5.9016505748e-05 0 0
          -4.5626622352e-05 0 0 -4.5626622352e-05 0 0
          -4.5626622352e-05 0 0 -4.5626622352e-05 0 0
          -3.1357352116e-05 0 0 -3.1357352116e-05 0 0
          -3.1357352116e-05 0 0 -3.1357352116e-05 0 0
          -1.616563331e-05 0 0 -1.616563331e-05 0 0
          -1.616563331e-05 0 0 -1.616563331e-05 0 0
          0 0 0 0 0 0
          0 0 0 0 0 0
          -0.0002321663423 0 -4.9548264799e-22 -0.0002321663423 -6.3866558799e-21 0
          -0.0002321663423 -1.4956015599e-21 0 -0.0002321663423 0 -1.4083432633e-21
          -0.00023216634201 0 0 -0.00023216634201 0 0
          -0.00023216634201 0 0 -0.00023216634201 0 0
          -0.00023216634083 0 -1.4069814955e-21 -0.00023216634083 2.3072893388e-21 0
          -0.00023216634083 1.2831639088e-21 0 -0.00023216634083 0 2.0520662071e-21
          -0.0002321663381 0 0 -0.0002321663381 0 0
          -0.0002321663381 0 0 -0.0002321663381 0 0
          -0.00023216633166 0 1.4573823913e-21 -0.00023216633166 -4.462079407e-22 0
          -0.00023216633166 -5.0985485625e-21 0 -0.00023216633166 0 1.5664730599e-21
          -0.000232166318 0 0 -0.000232166318 0 0
          -0.000232166318 0 0 -0.000232166318 0 0
          -0.00023216628708 0 1.1638676516e-21 -0.00023216628708 -3.5467681874e-21 0
          -0.00023216628708 6.5661183832e-21 0 -0.00023216628708 0 -2.1365723729e-21
          -0.00023216622322 0 0 -0.00023216622322 0 0
          -0.00023216622322 0 0 -0.00023216622322 0 0
          -0.00023216608356 0 -1.755780466e-21 -0.00023216608356 1.1367610607e-22 0
          -0.00023216608356 5.1475555099e-22 0 -0.00023216608356 0 3.3290091855e-21
          -0.00023216580226 0 0 -0.00023216580226 0 0
          -0.00023216580226 0 0 -0.00023216580226 0 0
          -0.00023216520858 0 2.3817521925e-22 -0.00023216520858 -6.5996532266e-22 0
          -0.00023216520858 -1.0894944404e-21 0 -0.00023216520858 0 -1.0814990149e-21
          -0.00023216404437 0 0 -0.00023216404437 0 0
          -0.00023216404437 0 0 -0.00023216404437 0 0
          -0.00023216167629 0 -7.3969133115e-21 -0.00023216167629 1.0780111463e-21 0
          -0.00023216167629 -1.3766438278e-21 0 -0.00023216167629 0 -7.7456363106e-22
          -0.00023215716397 0 0 -0.00023215716397 0 0
          -0.00023215716397 0 0 -0.00023215716397 0 0
          -0.00023214832842 0 5.0352705225e-22 -0.00023214832842 -1.8826011961e-21 0
          -0.00023214832842 -2.3071242248e-22 0 -0.00023214832842 0 -7.9979726913e-21
          -0.00023213199942 0 0 -0.00023213199942 0 0
          -0.00023213199942 0 0 -0.00023213199942 0 0
          -0.00023210125277 0 -7.9062017658e-21 -0.00023210125277 -1.6168426034e-21 0
          -0.00023210125277 -1.9540068639e-21 0 -0.00023210125277 0 -1.2250236764e-21
          -0.00023204623751 0 0 -0.00023204623751 0 0
          -0.00023204623751 0 0 -0.00023204623751 0 0
          -0.00023194670909 0 -7.3370871222e-21 -0.00023194670909 -1.1754902238e-21 0
          -0.00023194670909 -2.0355362836e-21 0 -0.00023194670909 0 -1.2333395896e-21
          -0.0002317745606 0 0 -0.0002317745606 0 0
          -0.0002317745606 0 0 -0.0002317745606 0 0
          -0.00023147552729 0 -3.8679849219e-21 -0.00023147552729 -4.27257519e-21 0
          -0.00023147552729 7.9349458041e-21 0 -0.00023147552729 0 -2.5653088191e-21
          -0.00023143165253 0 0 -0.00023143165253 0 0
          -0.00023143165253 0 0 -0.00023143165253 0 0
          -0.0002313851623 0 -3.0580904835e-21 -0.0002313851623 -3.0208176653e-21 0
          -0.0002313851623 4.3869863128e-21 0 -0.0002313851623 0 -4.7591171925e-22
          -0.00023133592135 0 0 -0.00023133592135 0 0
          -0.00023133592135 0 0 -0.00023133592135 0 0
          -0.00023128377056 0 -4.3631018285e-21 -0.00023128377056 -2.8451308392e-21 0
          -0.00023128377056 7.6795839199e-21 0 -0.00023128377056 0 2.0758228412e-21
          -0.00023122854406 0 0 -0.00023122854406 0 0
          -0.00023122854406 0 0 -0.00023122854406 0 0
          -0.00023117008163 0 -7.8192377351e-21 -0.00023117008163 -8.862870756e-21 0
          -0.00023117008163 1.1513256085e-20 0 -0.00023117008163 0 5.7127410864e-21
          -0.00023110820999 0 0 -0.00023110820999 0 0
          -0.00023110820999 0 0 -0.00023110820999 0 0
          -0.00023104274453 0 -1.2260080731e-20 -0.00023104274453 -9.0788624404e-21 0
          -0.00023104274453 2.0627413634e-20 0 -0.00023104274453 0 1.380656196e-20
          -0.00023097350544 0 0 -0.00023097350544 0 0
          -0.00023097350544 0 0 -0.00023097350544 0 0
          -0.00023090028043 0 -5.6419120275e-21 -0.00023090028043 1.6555576559e-21 0
          -0.00023090028043 1.8571542301e-20 0 -0.00023090028043 0 5.8785862144e-21
          -0.00023082284845 0 0 -0.00023082284845 0 0
          -0.00023082284845 0 0 -0.00023082284845 0 0
          -0.0002307409976 0 -1.1344428553e-20 -0.0002307409976 3.7395007472e-21 0
          -0.0002307409976 2.043010903e-20 0 -0.0002307409976 0 3.5888105348e-21
          -0.00023065449839 0 0 -0.00023065449839 0 0
          -0.00023065449839 0 0 -0.00023065449839 0 0
          -0.00023056310685 0 -1.1590390874e-20 -0.00023056310685 -1.3894537808e-21 0
          -0.00023056310685 2.1405027211e-20 0 -0.00023056310685 0 5.5210071368e-21
          -0.00023046658641 0 0 -0.00023046658641 0 0
          -0.00023046658641 0 0 -0.00023046658641 0 0
          -0.00023036465674 0 -8.1911045357e-21 -0.00023036465674 -3.4059859953e-21 0
          -0.00023036465674 2.1057306374e-20 0 -0.00023036465674 0 6.3805085121e-21
          -0.00023025702619 0 0 -0.00023025702619 0 0
          -0.00023025702619 0 0 -0.00023025702619 0 0
          -0.00023014341754 0 -1.0986990025e-20 -0.00023014341754 -2.1956220486e-21 0
          -0.00023014341754 1.7773389647e-20 0 -0.00023014341754 0 3.3892518302e-21
          -0.00023002352995 0 0 -0.00023002352995 0 0
          -0.00023002352995 0 0 -0.00023002352995 0 0
          -0.00022989704437 0 -1.2626232781e-20 -0.00022989704437 -3.2362082525e-21 0
          -0.00022989704437 1.4943706269e-20 0 -0.00022989704437 0 8.5495819827e-22
          -0.00022976365287 0 0 -0.00022976365287 0 0
          -0.00022976365287 0 0 -0.00022976365287 0 0
          -0.00022962298904 0 -1.225008522e-20 -0.00022962298904 2.9349301186e-21 0
          -0.00022962298904 1.3666160199e-20 0 -0.00022962298904 0 -4.6006297484e-21
          -0.00022947467196 0 0 -0.00022947467196 0 0
          -0.00022947467196 0 0 -0.00022947467196 0 0
          -0.00022931834284 0 -9.9196143736e-21 -0.00022931834284 1.3432813988e-20 0
          -0.00022931834284 1.2720250187e-20 0 -0.00022931834284 0 -1.5849211848e-20
          -0.00022915361143 0 0 -0.00022915361143 0 0
          -0.00022915361143 0 0 -0.00022915361143 0 0
          -0.00022898006483 0 -1.4454516146e-20 -0.00022898006483 1.5915395427e-20 0
          -0.00022898006483 1.0624077415e-20 0 -0.00022898006483 0 -1.8044197787e-20
          -0.00022879730656 0 0 -0.00022879730656 0 0
          -0.00022879730656 0 0 -0.00022879730656 0 0
          -0.00022860486254 0 -1.3200300516e-20 -0.00022860486254 1.6069248572e-20 0
          -0.00022860486254 1.6643002879e-20 0 -0.00022860486254 0 -1.6202304871e-20
          -0.00022840224033 0 0 -0.00022840224033 0 0
          -0.00022840224033 0 0 -0.00022840224033 0 0
          -0.00022818898058 0 -9.0091629892e-21 -0.00022818898058 2.1284355002e-20 0
          -0.00022818898058 1.7692306035e-20 0 -0.00022818898058 0 -8.9801965487e-21
          -0.00022796458235 0 0 -0.00022796458235 0 0
          -0.00022796458235 0 0 -0.00022796458235 0 0
          -0.00022772851688 0 -4.7494132177e-21 -0.00022772851688 2.4906110494e-20 0
          -0.00022772851688 1.9065672987e-20 0 -0.00022772851688 0 -8.5665812935e-21
          -0.0002274802792 0 0 -0.0002274802792 0 0
          -0.0002274802792 0 0 -0.0002274802792 0 0
          -0.0002272192622 0 4.6479655818e-21 -0.0002272192622 3.5998980823e-20 0
          -0.0002272192622 2.1035515451e-20 0 -0.0002272192622 0 -9.3309021443e-21
          -0.00022694483575 0 0 -0.00022694483575 0 0
          -0.00022694483575 0 0 -0.00022694483575 0 0
          -0.00022665641811 0 5.9792236021e-21 -0.00022665641811 4.3590830477e-20 0
          -0.00022665641811 2.9487415751e-20 0 -0.00022665641811 0 -7.2092341792e-21
          -0.00022635337303 0 0 -0.00022635337303 0 0
          -0.00022635337303 0 0 -0.00022635337303 0 0
          -0.00022603503048 0 4.5889017794e-21 -0.00022603503048 4.7335535085e-20 0
          -0.00022603503048 4.2657675205e-20 0 -0.00022603503048 0 1.5468839961e-21
          -0.00022570075439 0 0 -0.00022570075439 0 0
          -0.00022570075439 0 0 -0.00022570075439 0 0
          -0.00022534977517 0 9.6682229506e-21 -0.00022534977517 5.4650555334e-20 0
          -0.00022534977517 5.4327241722e-20 0 -0.00022534977517 0 5.0231533556e-21
          -0.00022498129466 0 0 -0.00022498129466 0 0
          -0.00022498129466 0 0 -0.00022498129466 0 0
          -0.00022459458426 0 1.6775394835e-20 -0.00022459458426 6.1716273452e-20 0
          -0.00022459458426 5.5817888051e-20 0 -0.00022459458426 0 1.3272755389e-20
          -0.00022418884433 0 0 -0.00022418884433 0 0
          -0.00022418884433 0 0 -0.00022418884433 0 0
          -0.00022376323475 0 3.0862728253e-20 -0.00022376323475 6.7830404125e-20 0
          -0.00022376323475 4.7589000449e-20 0 -0.00022376323475 0 1.3116113188e-20
          -0.00022331696318 0 0 -0.00022331696318 0 0
          -0.00022331696318 0 0 -0.00022331696318 0 0
          -0.00022284906393 0 4.4114775172e-20 -0.00022284906393 7.3429221241e-20 0
          -0.00022284906393 4.39647488e-20 0 -0.00022284906393 0 1.6761117304e-20
          -0.00022235853631 0 0 -0.00022235853631 0 0
          -0.00022235853631 0 0 -0.00022235853631 0 0
          -0.00022184447776 0 5.365359182e-20 -0.00022184447776 7.3292124856e-20 0
          -0.00022184447776 4.3089619083e-20 0 -0.00022184447776 0 2.663867802e-20
          -0.00022130589392 0 0 -0.00022130589392 0 0
          -0.00022130589392 0 0 -0.00022130589392 0 0
          -0.00022074174254 0 6.4454149549e-20 -0.00022074174254 7.5735554726e-20 0
          -0.00022074174254 3.8929074139e-20 0 -0.00022074174254 0 3.0070395521e-20
          -0.00022015104747 0 0 -0.00022015104747 0 0
          -0.00022015104747 0 0 -0.00022015104747 0 0
          -0.00021953260928 0 7.3777633793e-20 -0.00021953260928 8.3893132722e-20 0
          -0.00021953260928 3.714029413e-20 0 -0.00021953260928 0 3.1815611132e-20
          -0.00021888518599 0 0 -0.00021888518599 0 0
          -0.00021888518599 0 0 -0.00021888518599 0 0
          -0.00021820767197 0 8.570551552e-20 -0.00021820767197 8.9608098791e-20 0
          -0.00021820767197 3.4689354315e-20 0 -0.00021820767197 0 2.9009059712e-20
          -0.0002174988437 0 0 -0.0002174988437 0 0
          -0.0002174988437 0 0 -0.0002174988437 0 0
          -0.00021675742176 0 9.1386767588e-20 -0.00021675742176 9.4649248172e-20 0
          -0.00021675742176 3.1272405182e-20 0 -0.00021675742176 0 2.7950733267e-20
          -0.00021598221702 0 0 -0.00021598221702 0 0
          -0.00021598221702 0 0 -0.00021598221702 0 0
          -0.00021517175467 0 9.8737253013e-20 -0.00021517175467 9.9730711439e-20 0
          -0.00021517175467 2.2572116448e-20 0 -0.00021517175467 0 1.7198637301e-20
          -0.00021432450872 0 0 -0.00021432450872 0 0
          -0.00021432450872 0 0 -0.00021432450872 0 0
          -0.00021343913986 0 9.892337685e-20 -0.00021343913986 9.1979068749e-20 0
          -0.00021343913986 2.1724614799e-20 0 -0.00021343913986 0 2.2853886074e-20
          -0.00021251415841 0 0 -0.00021251415841 0 0
          -0.00021251415841 0 0 -0.00021251415841 0 0
          -0.00021154801032 0 1.0836438923e-19 -0.00021154801032 8.8385154321e-20 0
          -0.00021154801032 8.3154866956e-21 0 -0.00021154801032 0 2.3792142917e-20
          -0.00021053926321 0 0 -0.00021053926321 0 0
          -0.00021053926321 0 0 -0.00021053926321 0 0
          -0.00020948612178 0 1.3030802754e-19 -0.00020948612178 8.7428483804e-20 0
          -0.00020948612178 -9.6713399046e-21 0 -0.00020948612178 0 2.4536831831e-20
          -0.00020838672971 0 0 -0.00020838672971 0 0
          -0.00020838672971 0 0 -0.00020838672971 0 0
          -0.00020723948274 0 1.4734892119e-19 -0.00020723948274 8.5239892219e-20 0
          -0.00020723948274 -2.4812132646e-20 0 -0.00020723948274 0 3.6469669122e-20
          -0.00020604258613 0 0 -0.00020604258613 0 0
          -0.00020604258613 0 0 -0.00020604258613 0 0
          -0.00020479417194 0 1.6383275921e-19 -0.00020479417194 8.9043010735e-20 0