<?xml version="1.0"?>
<VTKFile type="UnstructuredGrid" version="0.1" byte_order="LittleEndian" header_type="UInt32">
  <UnstructuredGrid>
    <FieldData>
      <DataArray type="Int8" Name="IntegrationPointMetaData" NumberOfTuples="97" format="ascii" RangeMin="34" RangeMax="125">
        123 34 105 110 116 101
        103 114 97 116 105 111
        110 95 112 111 105 110
        116 95 97 114 114 97
        121 115 34 58 91 123
        34 105 110 116 101 103
        114 97 116 105 111 110
        95 111 114 100 101 114
        34 58 50 44 34 110
        97 109 101 34 58 34
        115 105 103 109 97 95
        105 112 34 44 34 110
        117 109 98 101 114 95
        111 102 95 99 111 109
        112 111 110 101 110 116
        115 34 58 54 125 93
        125
      </DataArray>
      <DataArray type="Int8" Name="OGS_VERSION" NumberOfTuples="40" format="ascii" RangeMin="45" RangeMax="121">
        54 46 50 46 48 45
        49 53 45 103 53 51
        56 49 101 101 99 99
        100 46 100 105 114 116
        121 46 50 48 49 57
        48 52 48 49 49 53
        48 52 49 50
      </DataArray>
      <DataArray type="Float64" Name="sigma_ip" NumberOfComponents="6" NumberOfTuples="3456" format="ascii" RangeMin="499999999.94" RangeMax="500000000.06">
        0.0057107188502 0.0022581681731 0.0011572126107 -0.0011647804294 0.0041213915067 499999999.97
        0.01005374766 0.0050261233043 0.0033432062503 -0.0011226139495 0.0020138766389 499999999.98
        -0.013818647548 -0.0031024057407 -0.0042489115996 0.0069825666401 -0.00042603477559 499999999.98
        -0.0013842719423 -0.00028427728257 -0.0010979729024 -0.00029743376687 0.0027665397112 499999999.98
        -0.0067174764158 -0.000850098833 -0.0011256664529 0.001736739629 0.00075385290807 499999999.99
        -0.019327286386 -0.0053328781833 -0.0039521845084 0.0099121031197 -0.0015912733739 499999999.99
        -0.00412031468 -0.00087018452277 0.00011404639177 0.00028825614219 0.0015923497459 499999999.99
        -0.0077873493987 -0.00098902626669 0.0016532885657 0.0038177994015 -0.00032553659188 499999999.99
        0.002208187994 0.0019550596535 0.0073740704822 0.011566708741 -0.0025758900078 499999999.98
        0.0082070318105 0.0039967195535 0.0019594498299 -0.0023366692227 0.01314009152 499999999.96
        0.018535546973 0.0083159725359 0.0074315758134 0.00016173315687 0.0057909425761 499999999.97
        -0.0012728545639 -0.0040263993701 0.0012047602892 0.017702795718 -0.0030333082331 499999999.99
        -0.00052967572477 -0.0013701319935 -0.0071350757709 -0.00085424872398 0.0094641861496 499999999.98
        0.003587202616 0.00039791318444 0.00075541259548 0.004523444673 0.0025355521246 499999999.99
        -0.0014939669159 -0.0075160898427 0.0039263973594 0.023021974237 -0.0058678403076 499999999.99
        -0.0023119072461 -0.0021849173659 -0.0049758126867 0.00034651502124 0.0065895063202 500000000
        0.0069358214446 0.0008127606299 0.0091139133792 0.0081068623831 8.174293863e-05 499999999.99
        0.027924180271 0.0011077762843 0.025463001289 0.027066221897 -0.0079012940368 499999999.98
        0.01173609233 0.005595756326 0.0070321918925 -0.0031988700952 0.014189440736 499999999.95
        0.025156234616 0.0027853695825 0.012895950877 0.0026001449234 0.0046980110287 499999999.97
        0.0065173586313 -0.022452391649 0.0051381116715 0.030421466196 -0.007410591078 499999999.99
        -0.0025172358185 -0.0064704051825 -0.020526385406 -0.0011013757603 0.011809180568 499999999.98
        0.0081562382048 -0.011049058755 -0.0076110981712 0.0084642143771 0.0030642316947 499999999.99
        0.0077099097296 -0.031075163188 -0.0013369303868 0.038130286754 -0.0082980367749 500000000
        -0.0072190681312 -0.011387480695 -0.029040114555 0.00071446182108 0.010851424169 499999999.99
        0.012049027842 -0.013954757433 -0.0052960146311 0.013549990025 0.0028526617359 499999999.99
        0.041135635033 -0.02499046346 0.018784738414 0.044564176453 -0.0077635184235 499999999.98
        0.011888804615 0.0024263547306 0.003619469102 -0.0062164111562 -0.00089416458863 499999999.98
        -0.012276688026 -0.0061283159052 -0.0045742738644 0.0022650756223 0.0018930285849 499999999.97
        -0.0073607580717 -0.0032120651914 -0.0026299351812 0.0020389025898 0.0043292048966 499999999.97
        0.016484264531 0.0040099945075 0.0027211895859 -0.0092201642214 -0.0016956661229 499999999.98
        0.003529405044 -0.00086869623218 -0.00065388484413 -0.00093784014046 0.00077415371291 499999999.98
        -0.00099394575107 -0.001159734406 -0.00077403885539 0.00092696443341 0.0028929168212 499999999.98
        -0.0048357942957 -0.0034745716417 -0.0085343948923 -0.01131758429 -0.0023314891704 499999999.98
        0.0045828062101 -0.00095634425348 -0.0033698746971 -0.0036898893636 -0.00017907640472 499999999.99
        0.0017829485952 -0.00073378599207 -0.0018337540412 -0.00018957364057 0.0016223102993 499999999.99
        0.0017974183098 0.0050167231459 0.00016067230438 -0.018192168555 -0.0051018191829 499999999.99
        -0.01944906543 -0.0091936546413 -0.0087643451351 -0.00029144686447 0.0052678564604 499999999.97
        -0.0093237763678 -0.0050624802656 -0.0052605109165 0.0020182924548 0.014080000385 499999999.96
        0.00073632499283 0.0065561866154 -0.0043210891775 -0.022825882054 -0.0063549001611 499999999.99
        -0.0056755340239 -0.002979547385 -0.0035021095139 -0.0042570841539 0.002606549743 499999999.99
        -0.0013656573084 -0.0010571211715 0.0028621910808 0.0010108716788 0.010010639657 499999999.98
        -0.028455446546 -0.0031877153207 -0.02580563406 -0.026553262556 -0.006873153336 499999999.98
        -0.0088695703743 -0.0043275836752 -0.011520880322 -0.0077718549037 0.00068029162311 499999999.99
        0.00078783098841 -0.00089285723708 0.0014251432021 -1.1490146956e-06 0.0066762416622 500000000
        -0.0025684106543 0.026920040851 0.00029115558193 -0.032067781419 -0.011066575901 500000000
        -0.023749520632 -0.0015070900198 -0.012218630958 -0.0038906274355 0.0037928527263 499999999.97
        -0.01126961956 -0.0047231498723 -0.010012131705 0.0018122216171 0.015889065822 499999999.95
        -0.00542090248 0.032280482737 0.0038213763064 -0.038331455352 -0.0092045689083 500000000
        -0.0081433363184 0.0095267193918 0.0059810949801 -0.0086189862516 0.0031564746266 499999999.99
        0.0021458283236 0.0051012596162 0.015975442222 0.00090931822167 0.01275366478 499999999.98
        -0.038618048059 0.024143583687 -0.016293112962 -0.043688796288 -0.006037937746 499999999.98
        -0.011719840209 0.010783264809 0.004254453144 -0.012896478528 0.0038240583139 499999999.99
        0.0075403106904 0.0088682391905 0.025754262008 1.8149086402e-06 0.010922863375 499999999.99
        -0.004662287388 -0.001716304985 0.00057210826442 0.00016960722362 0.0029267596735 500000000
        -0.0071377742821 -0.0041194875325 0.001739736994 0.0022515990776 0.0028883445403 499999999.99
        0.0082391921956 -0.0019286762102 0.0085190382493 0.0048026579329 0.0032904906044 499999999.99
        -0.0042290777256 -0.0012245002073 0.00044045772328 -0.00029491842096 0.001783306108 500000000.01
        -0.0067247892847 -0.0033370422061 0.00029939117559 -0.00040134622563 0.0023154325217 500000000
        0.0019182357175 -0.0030935815184 0.0035317492314 -0.0017872456835 0.0032880526679 500000000
        -0.0020071236093 -8.1841074383e-05 0.0011234801487 -0.00018704139702 0.00032838851764 500000000.01
        -0.0024379225141 -0.0012088164474 0.00036828531319 -0.0016256930986 0.0014310779444 500000000.01
        0.0015565923676 -0.0022174862814 0.00074914926573 -0.006092355108 0.0029742519038 500000000.01
        -0.0028833509808 -0.0040882264807 -0.0028153004182 0.0001004191017 0.0099470263797 500000000
        0.0044753974511 -0.0082198675936 0.0085834377473 0.0013016252802 0.0086474804778 499999999.99
        0.027937828147 -0.013003363253 0.023844612425 0.00073403564649 0.009302209033 499999999.98
        -0.0026805460603 -0.0015381363943 -0.00020743166799 0.00046156942479 0.0046790963211 500000000.01
        -0.004228862163 -0.0073199122616 0.0024443922611 0.0004112045939 0.0059106621261 500000000
        0.0036133318914 -0.015990989156 0.0067220388898 -0.0031564947038 0.0090965882527 499999999.99
        -0.00040831409069 0.0019434906425 0.0040571578345 0.0013951224164 -0.0019709321568 500000000
        -0.0087777880587 -0.0047927245522 -0.0013410574339 0.00094938233775 0.0017921133454 500000000
        -0.014470687255 -0.016656450532 -0.0073523536504 -0.0047622308623 0.0075092002443 500000000
        -0.0074683251903 -0.012310596757 -0.025807902788 -0.00054071137698 0.012261612523 500000000
        0.0099656608688 -0.017446208077 -0.0039385343388 -0.0028371273955 0.0079514388647 499999999.99
        0.041755206871 -0.028478873575 0.020045980969 -0.0091402020399 0.0071099183722 499999999.98
        -0.0053100346542 -0.005516331004 -0.013902843673 0.00064611491378 0.0025671011699 500000000
        -0.0056689347165 -0.0142418341 -0.0082155535719 -0.0019650234649 0.002748839372 500000000
        0.0016137897791 -0.03110260113 -0.0026520202597 -0.010331359124 0.0063985438249 499999999.99
        -0.0007996612257 0.0024921275422 0.00050690372302 0.0024053438731 -0.0095791586231 500000000
        -0.016867240769 -0.00912927193 -0.0092961095713 0.00033567889577 -0.0049058520179 500000000
        -0.032006749502 -0.031123763457 -0.021460638385 -0.0092377220165 0.0032355189688 499999999.99
        -0.011619498895 9.3054072171e-05 -0.0099348233868 -0.0054345974084 0.0033668854156 499999999.99
        0.0029694017311 0.0017943993821 -0.0037328975095 -0.0031244501014 0.0029131470946 499999999.99
        0.0014300506481 -0.00029350751476 -0.0025103302641 -0.00095364964143 0.002866688304 500000000
        -0.0071813579583 0.0010195285293 -0.0055948096972 0.00082377204103 0.0035809515761 500000000
[...]
      <PointData>
        <DataArray type="Float64" Name="MaterialForces" NumberOfComponents="3" format="ascii" RangeMin="0.00012809127987" RangeMax="26041666.669">
          0.0046772146598 0.00054607819766 0.00015565380454 -10416666.666 0.0010410058312 2.2959895432e-05
          -5208333.3332 5208333.3336 8.2748010755e-07 0.0017853160389 10416666.667 3.3942051232e-05
          0.0016874624416 0.0003302632831 13020833.334 -5208333.3329 0.00043027335778 6510416.6667
          -2604166.6666 2604166.6666 3255208.333 0.0007540252991 5208333.333 6510416.6662
          0.0011404757388 0.00034290645272 -13020833.334 -5208333.333 0.00043816072866 -6510416.6667
          -2604166.6667 2604166.6666 -3255208.333 0.00029917154461 5208333.333 -6510416.6662
          0.00088682817295 0.00063309445977 0.00032636336982 -10416666.667 0.00017337827012 7.2345603257e-05
          -5.4012052715e-06 0.0003636488691 13020833.334 -5208333.3332 0.0001293621026 6510416.6666
          -7.8440643847e-06 0.00037202984095 -13020833.333 -5208333.3332 0.00013870187104 -6510416.6666
          -0.0016193985939 -0.00022653397173 0.00038018124178 -10416666.668 0.00017775921151 0.00010446505621
          0.00063957320526 -2.0941253752e-05 13020833.333 -5208333.3336 7.7581964433e-05 6510416.6667
          0.0010645929724 -2.3257918656e-05 -13020833.332 -5208333.3336 8.1548001617e-05 -6510416.6666
          -0.0024744458497 -9.2950649559e-06 0.00035693868995 -10416666.667 -8.3050690591e-06 0.00010702479631
          0.00014583300799 -3.9073638618e-06 13020833.332 -5208333.3336 -2.9313378036e-06 6510416.6667
          0.00064240861684 -5.0221569836e-06 -13020833.332 -5208333.3335 -4.9010850489e-06 -6510416.6666
          0.0027744737454 -0.00080082379282 -1.8259510398e-05 0.0023167622276 10416666.665 -3.7749763578e-05
          0.0011833170429 -0.00035190582275 13020833.333 0.0020569120534 5208333.3331 6510416.6673
          0.00047516217455 -0.0003426107578 -13020833.333 0.0013901600614 5208333.3331 -6510416.6673
          0.0014933110215 0.00057120714337 -1.2367963791e-06 0.00075802253559 0.00031698774546 13020833.333
          0.00094170449302 0.00031511904672 -13020833.333 0.0044204853475 -0.00082711363211 -0.00018505565822
          0.00085100950673 -0.00039363512769 13020833.333 0.0015298053622 -0.00040478259325 -13020833.334
          0.0035315714777 -8.36327672e-07 -0.00024973182008 0.001122714486 -3.7150457501e-06 13020833.333
          0.0017167259939 4.3669715524e-06 -13020833.333 -0.0010138303041 -0.000617550686 -0.0005082054995
          0.00053973821923 10416666.665 -0.00024856766686 0.00034145265818 -0.00030831387267 13020833.332
          0.0010910970159 5208333.3329 6510416.6665 -0.00054878694937 -0.00030707381666 -13020833.333
          0.00022804224864 5208333.3329 -6510416.6668 -0.00015190523118 0.0019843862392 -0.00055740773678
          2.1886080503e-08 0.00083876308054 13020833.332 0.0001293909736 0.00083612231538 -13020833.333
          0.0031871641986 0.0010463357903 -0.00064568407834 0.0016408422962 0.00041409628466 13020833.334
          0.0020477049984 0.0004137144424 -13020833.335 0.0050279642455 1.3671815395e-06 -0.00048456713557
          0.0016006841324 -1.0281801224e-05 13020833.336 0.0016596056521 1.2442003936e-05 -13020833.337
          0.0063391770236 0.00059629557654 -0.00043610390276 0.0035868892446 10416666.668 -0.00016464898363
          0.0037302733399 0.00035831891 13020833.333 0.0018799705431 5208333.3334 6510416.6661
          0.0024784216657 0.00034649902955 -13020833.333 0.00072661740705 5208333.3334 -6510416.6663
          0.0043446267955 0.00072577642277 -0.00047477753833 0.0028373892419 0.00035290932283 13020833.333
          0.0028419308364 0.00035678548738 -13020833.333 0.0011165579781 0.0015516816638 -0.00020743394271
          0.0020407689735 0.00062590092421 13020833.333 0.0024504708126 0.00064850272611 -13020833.334
          0.0001679728739 4.3748877943e-06 0.00026021525264 0.0011968687177 -1.1879019439e-05 13020833.335
          0.0012231981382 1.6110017896e-05 -13020833.334 -0.0030735810287 0.00020877504721 0.00030550640076
          -10416666.668 -0.00019330484793 7.8961718827e-05 4.03188169e-05 1.5651807189e-05 13020833.333
          -5208333.3338 -8.2072801888e-05 6510416.6667 0.00024554599077 1.1878553778e-05 -13020833.332
          -5208333.3337 -9.1548077762e-05 -6510416.6666 -0.0018232958391 -0.00064797513187 4.6598725021e-05
          -10416666.667 -0.00018586125225 -5.3411349654e-07 -0.0011453521438 -0.00036340393126 13020833.333
          -5208333.3334 -0.00013093603775 6510416.6666 -0.0014795265161 -0.00038548745215 -13020833.333
          -5208333.3335 -0.0001484756358 -6510416.6666 0.0010597403161 -0.00055452482775 -0.00041699782014
          -10416666.666 -0.0010480526835 -0.00010929442942 0.00016671372578 -0.0003271526657 13020833.334
          -5208333.3332 -0.00043011223897 6510416.6666 -0.00075011793524 -0.00035370327532 -13020833.334
          -5208333.3333 -0.00044479081407 -6510416.6667 -0.00018645543605 -10416666.667 -0.00032383808866
          -5208333.3336 -5208333.3336 -7.8775919974e-05 -5.871988833e-05 -5208333.3329 6510416.666
          -2604166.6668 -2604166.6666 3255208.333 -0.00072591146454 -5208333.333 -6510416.6663
          -2604166.6669 -2604166.6666 -3255208.333 0.0024643959478 0.00082432292402 1.3850163668e-05
          0.00012944592163 0.00038910610601 13020833.334 0.00032388139516 0.00041021825746 -13020833.334
          -0.0021773315966 -0.00057606538758 0.0001742457971 -0.00069647841156 -0.00031435023993 13020833.333
          -0.0011387788691 -0.00031765224412 -13020833.333 -0.0021605719812 0.00079665426165 -9.7316689789e-05
          -0.00083755003288 0.00035905465484 13020833.333 -0.0020967959426 0.00033470056951 -13020833.333
          -0.00038002990186 -10416666.665 -0.00016828021035 0.00098281074315 -5208333.3331 6510416.6672
          2.8666108847e-06 -5208333.3332 -6510416.6674 0.0013417918235 -0.0010449844413 3.54424119e-05
          0.00098732160404 -0.00042989850044 13020833.335 0.00085569452494 -0.00039389822632 -13020833.335
          -0.0036555416882 -0.0019865464419 0.00044132350013 -0.0015192907304 -0.00084209721535 13020833.333
          -0.0016881925985 -0.00083037698641 -13020833.332 -0.0058100484312 0.00061398791149 0.00033835833892
          -0.0020003868267 0.00031627295539 13020833.333 -0.0024866908789 0.00029893405735 -13020833.332
          -0.0021048025228 -10416666.665 5.6319870055e-05 -0.00024374807253 -5208333.3329 6510416.6666
          -0.00070722959936 -5208333.3329 -6510416.6666 -0.00051563605666 -0.0015435968526 0.00064103258774
          0.0014246897772 -0.00064100697637 13020833.334 0.0013921749778 -0.00062428973615 -13020833.333
          0.0012477571145 -0.00072101363912 0.0006340034306 0.0011663637124 -0.0003468520008 13020833.333
          0.0016184207052 -0.00035458570346 -13020833.333 0.0020178426057 -0.00059615075588 0.00022403057665
          0.00091604422778 -0.00033844122663 13020833.333 0.0017150179483 -0.0003629536368 -13020833.333
          0.001165679656 -10416666.668 -5.1937066019e-05 0.0001297085546 -5208333.3334 6510416.6661
          0.00061140256003 -5208333.3334 -6510416.6662 0.00052685337141 -0.00028529390693 0.00028242589906
          0.00158205349 10416666.668 0.00029284879565 0.00017478968948 -6.9404486567e-05 13020833.334
          0.0019957902841 5208333.3342 6510416.6672 -0.0010045003146 -0.00010565435514 -13020833.333
          0.00089891767129 5208333.3341 -6510416.6669 -0.00030526611954 -0.002611272037 -0.00010758033022
          -0.0014664195478 -0.0011418769136 13020833.334 -0.0012512756512 -0.0011563855223 -13020833.334
          0.0014095348306 -0.00022873468697 1.6478821635e-05 -0.00087776407599 -2.7487520128e-05 13020833.332
          0.00010889070109 -7.7956356108e-06 -13020833.332 0.00010359613225 1.2523960322e-05 0.00043779332191
          -0.00050835078582 -4.6505592763e-06 13020833.332 0.00012723635882 1.7336569726e-05 -13020833.332
          -0.0027690716088 -0.00076636997983 0.00066309561953 -0.0012724343687 10416666.667 0.00054697645828
          0.00055150873959 -0.00042323954403 13020833.333 0.0005903262645 5208333.3331 6510416.6667
          9.0175308287e-05 -0.00047810608521 -13020833.333 8.9825130999e-05 5208333.333 -6510416.6662
          0.0016351677477 -0.00072578247637 -0.00014575663954 0.00020098220557 -0.00024106772617 13020833.332
          0.00070356111974 -0.00028704572469 -13020833.333 0.0025280048139 -0.0014296225272 -0.00049650948495
          -0.0013171550818 -0.00061328848824 13020833.331 -0.00017931265756 -0.00061521260068 -13020833.332
          0.0038447617553 1.076143235e-05 -0.00024267006665 0.00076292501763 -5.7308934629e-06 13020833.331
          0.0011826190166 1.9481871277e-05 -13020833.331 -0.00052679609507 -0.0014936858788 0.00031372439116
          0.00031887926161 10416666.666 0.00031629670411 0.00030403165147 -0.0008033788763 13020833.334
          -0.0004314398393 5208333.333 6510416.6672 0.00058128731325 -0.00085272593424 -13020833.334
          -0.0002735410817 5208333.333 -6510416.6669 -0.0011229547672 0.00016119610518 -0.00044730771333
          8.5633713752e-05 3.064237535e-05 13020833.333 0.00061503658071 -2.6391353458e-05 -13020833.334
          0.0010620881803 -0.00056195165962 -0.00083121331409 0.0015626396053 -0.00027205375955 13020833.333
          0.0021180822514 -0.00027055013925 -13020833.333 0.0038514379412 -1.040333882e-05 -0.00024678464979
          0.0021529044025 -3.0369497836e-05 13020833.333 0.0013130279258 3.2684765756e-05 -13020833.334
          10416666.665 -0.001594980713 2.7292408049e-06 5208333.3317 5208333.3329 4.7362409532e-05
          5208333.3324 -0.00074351858348 6510416.6667 2604166.6658 2604166.6664 3255208.3334
          5208333.3327 -0.00076295202598 -6510416.6668 2604166.666 2604166.6664 -3255208.3334
          10416666.666 -0.0007845479995 -0.00030872086063 5208333.3327 -0.0002831290476 6510416.6667
          5208333.333 -0.00030983425677 -6510416.667 10416666.669 0.00068796379492 -0.00041325949132
          5208333.3339 0.0003324970603 6510416.6672 5208333.334 0.00034167617559 -6510416.6676
          10416666.669 -1.49323605e-05 0.00014780508354 5208333.3341 -3.0272640288e-05 6510416.6679
          5208333.3333 1.8987804651e-05 -6510416.6677 0.00063919555396 0.00025342358276 0.00062663620338
          -0.0010541281663 3.1327363104e-05 13020833.332 -0.0007561892271 3.0205119401e-05 -13020833.331
          -0.0016778851859 0.0026319199242 0.00030392874032 -0.0024826009758 0.0011748285033 13020833.334
          -0.0017033782788 0.0011476869695 -13020833.334 -0.001428425312 0.00029451865703 -0.00033143116161
          -0.0019010580145 0.00011027278379 13020833.333 -0.0003549810499 7.8150536865e-05 -13020833.334
          0.00043699378148 -10416666.668 -0.00034746294841 0.0005458383821 -5208333.3341 6510416.6669
          0.0016661901027 -5208333.3342 -6510416.6673 0.0032855309546 0.0014523514546 0.000135214068
          -0.00049469666556 0.00062195491046 13020833.332 -0.00090963905677 0.00063451519236 -13020833.331
          0.0032667852938 0.00074700685218 4.2603351176e-06 0.00090540060773 0.00029014097527 13020833.333
          0.0009741592221 0.0002631759271 -13020833.333 -0.00059448787943 0.00077750068158 -0.0006431681104
          0.00073120882735 0.0004773279652 13020833.333 0.0020958748646 0.00043764989823 -13020833.333
          -0.00016634259373 -10416666.667 -0.00051432428882 0.00039157550782 -5208333.333 6510416.6662
          0.0015912367962 -5208333.3331 -6510416.6668 0.0028041815385 0.00055187754333 0.00068435119465
          0.0032627745531 0.00025428831577 13020833.333 0.0012364424765 0.00029401108623 -13020833.333
          0.0024472130463 -0.00015211943537 0.00066545791924 0.0022586989217 2.4458859116e-05 13020833.334
          0.0010923966765 -2.276385203e-05 -13020833.333 0.0042665265501 0.0015084538609 -0.0004108180292
          0.0023910659365 0.00086706643924 13020833.334 0.0032641296275 0.00079224118963 -13020833.334
          0.0028307801113 -10416666.666 -0.00054153520614 0.00047845114022 -5208333.3329 6510416.6667
          0.0015843720175 -5208333.3331 -6510416.6673 10416666.67 -0.00071717007086 0.00084271235391
          5208333.3349 -0.00036165956408 6510416.6677 5208333.3333 -0.00033482350409 -6510416.6668
          10416666.668 0.00075912475586 0.0007198350504 5208333.3341 0.00030592223629 6510416.6671
          5208333.333 0.00026806304231 -6510416.6664 10416666.667 0.0015794704668 -0.00015042722225
          5208333.3336 0.00077522685751 6510416.6666 5208333.334 0.00071999337524 -6510416.6668
          5208333.333 -5208333.3329 -0.00032727466896 2604166.6663 -2604166.6664 3255208.3332
          2604166.667 -2604166.6665 -3255208.3335 10416666.667 -10416666.666 0.00037657806388
          10416666.667 -10416666.666 -0.00038482014497 10416666.667 -0.00023854555911 -13020833.333
          20833333.333 -0.0011811898512 3.3561140299e-05 10416666.667 -0.00024115064298 13020833.333
          20833333.333 -0.000662304461 -0.00047805085342 20833333.333 -0.00067400187254 0.00042577994463
          10416666.667 -0.0003476703132 -13020833.333 20833333.333 -0.00041607777894 1.8823891878e-05
          10416666.667 -0.00035793264033 13020833.333 20833333.333 -5.7183206081e-06 -0.0002119401106
          20833333.333 -2.3130327463e-05 7.1383641625e-05 10416666.666 0.00010123618995 -13020833.333
          20833333.334 0.00016795983538 -3.4160912037e-06 10416666.666 9.4388575235e-05 13020833.333
          20833333.334 -7.8789889812e-07 3.0653311114e-05 20833333.334 -1.1755153537e-05 -0.0002273807404
          10416666.666 -0.00015298815561 -13020833.333 20833333.334 -0.00020599571508 -1.7497688532e-05
          10416666.666 -0.0001540900812 13020833.333 20833333.334 1.1054798961e-05 0.00017851050507
          20833333.334 1.3908371329e-05 -0.00037934879947 10416666.666 0.00015695422189 -13020833.333
          20833333.334 0.00021829623438 -1.3785436749e-05 10416666.666 0.00016110067736 13020833.333
          20833333.334 2.227909863e-05 5.798204802e-05 20833333.334 3.6649405956e-05 -0.00020935876819
          10416666.666 -9.9676544778e-05 -13020833.333 20833333.334 -0.00015715818154 4.6268105507e-06
          10416666.666 -8.6903219199e-05 13020833.333 20833333.334 2.4355947971e-05 -0.00013302930893
          20833333.334 4.1043385863e-05 0.0001279948192 10416666.667 0.00034658005461 -13020833.333
          20833333.333 0.00042414617201 2.5805085897e-05 10416666.667 0.0003649237442 13020833.333
          20833333.333 0.00067345052958 -0.00033333532338 20833333.333 0.00068335048854 0.00053199664399
          10416666.667 0.00023764499929 -13020833.332 20833333.333 0.0011837955863 3.8146972656e-05
          10416666.667 0.00024365218269 13020833.332 10416666.667 10416666.666 0.00046401238069
          10416666.667 10416666.666 -0.00032073925831 4.6963075874e-05 -10416666.666 -13020833.332
          0.00021419778204 -20833333.332 1.9820407033e-05 0.00011441039896 -10416666.666 13020833.332
          0.00057589364587 -0.00042416900396 -26041666.666 -0.00089155052046 -0.0015264023095 2.8727576137e-05
          0.00080205839913 -0.00044609978795 26041666.666 -0.00056346858037 -0.00016036815941 -26041666.667
          -0.0002791136576 0.0001596994698 3.0137598515e-06 -0.00042053487414 -0.00018615275621 26041666.667
          0.00052565537044 -0.00011491775513 -26041666.667 0.00023379325648 -0.00028582848608 -2.0105391741e-05
          0.00054318457114 -0.00012550316751 26041666.667 -0.00094785477268 2.8591603041e-06 -26041666.667
          0.00022296820316 1.3781711459e-05 -2.5598332286e-05 -0.00098437094493 8.9444220066e-06 26041666.667
          0.0005214601988 0.00011741556227 -26041666.667 0.00024439267872 0.00031200610101 -1.0000541806e-05
          0.00053916986872 0.00014450028539 26041666.667 -0.0005514039367 0.0001563616097 -26041666.667
          -0.00025246367295 -0.00013779662549 1.8207356334e-05 -0.00045502316061 0.00020621344447 26041666.667
          0.00061574255233 0.00041826441884 -26041666.666 -0.00082656073209 0.0015401709825 4.4940039515e-05
          0.00071421598841 0.00046055205166 26041666.666 7.8613404185e-05 10416666.666 -13020833.332
          0.00025344159803 20833333.332 2.7865171432e-05 4.00331337e-05 10416666.666 13020833.332
          -0.0013936776668 -20833333.333 0.00082469468907 -0.00087107904255 -20833333.333 -0.00090269919019
          -0.00016152299941 0.0004043802619 -26041666.666 -0.0005081538111 -0.00096671958454 4.3334439397e-05
          0.00026035681367 0.00038969373418 26041666.666 -0.0036314241588 -9.1833993793e-05 -0.0014353781589
          -0.0029263272882 -0.00012178346515 0.001112784048 -0.00060568191111 -0.00073665386299 -26041666.666
          -0.00081238895655 -0.00072056570934 4.330649972e-06 -0.00039457716048 -0.00077291582056 26041666.666
          -9.1210007668e-05 -0.00053763762116 -0.00066562370193 -6.6077336669e-05 -0.00057051330805 1.2227799743e-05
          -0.00082396529615 -0.00012678361963 -26041666.667 0.0012928266078 0.00020164039597 -3.8228929043e-05
          -0.00098426453769 -0.00013678822506 26041666.667 0.00088780373335 0.00010568089783 0.0010950567157
          0.00039032846689 9.5028430223e-05 -0.0018521572129 0.0001807436347 0.00010075623868 -26041666.667
          0.00061504729092 0.00048526823593 -5.1580369473e-05 -0.00020755827427 0.00010569398364 26041666.667
          -0.00029199942946 1.0220333934e-05 0.0019484980367 -0.00088260695338 2.1314248443e-05 -0.002662322986
          0.00018123723567 -0.00010047259275 -26041666.667 0.00073048099875 -0.00047021034698 -3.6928802729e-05
          -0.00011973455548 -9.6032748843e-05 26041666.667 0.0019982438534 -8.3915889263e-05 0.0011779497145
          0.0017615519464 -5.7362020016e-05 -0.0017942685736 -0.00079678371549 0.00011480139801 -26041666.667
          0.0016346313059 -0.0001872062021 -2.8181821108e-06 -0.0007727779448 0.00015522496687 26041666.667
          0.002003217116 0.0005591865629 -0.00035562133417 0.0024376548827 0.00059736147523 0.00025161371013
          -0.00051238015294 0.00071344530443 -26041666.666 -0.00026674196124 0.00073268217602 4.6430155635e-05
          -0.00016295351088 0.00079808285591 26041666.666 -0.00083257630467 0.00010509043932 -0.0008003807452
          0.00034311413765 0.00013653747737 0.0016176548452 -4.7478824854e-05 -0.00041633413639 -26041666.666
          0.00023688003421 0.00097058324172 8.7263062596e-05 0.00046765990555 -0.00037807060653 26041666.666
          0.0001215506345 20833333.333 0.0012210585992 0.00088757090271 20833333.333 -0.00058550768881
          0.00079243228538 -10416666.667 -13020833.334 -0.0012407323993 -20833333.334 7.6703727245e-06
          0.00090174257639 -10416666.667 13020833.334 -0.00016268057516 0.00048077851534 -26041666.666
          -0.0016493008843 0.0011113137007 3.1609088182e-06 0.00016355762273 0.00045314244926 26041666.666
          -0.00016537020565 -0.00040617957711 -26041666.667 -0.0006154057337 -0.00055346637964 -1.6964972019e-05
          -0.00024661968928 -0.00041608139873 26041666.667 0.00063091123593 -4.3788924813e-05 -26041666.667
          0.0022305617931 0.00071595795453 -2.1228566766e-05 0.00018887919578 -2.6611611247e-05 26041666.667
          -0.00098522909684 -8.5681676865e-08 -26041666.666 0.00071927709359 2.7529895306e-06 -1.2118369341e-05
          -0.0014769258778 1.6409903765e-06 26041666.666 0.00051651714602 3.7668272853e-05 -26041666.667
          0.0022780689833 -0.00070863775909 -3.6023557186e-06 0.00026481042369 3.5081058741e-05 26041666.667
          -0.00034844499896 0.00038779713213 -26041666.666 -0.00049164307347 0.00056354515254 7.1357935667e-06
          -0.00016780804799 0.00043508410454 26041666.666 -0.00041637429968 -0.00050116330385 -26041666.666
          -0.00138626642 -0.0011032186449 2.6000663638e-05 0.00021331772587 -0.00043335556984 26041666.666