<?xml version="1.0"?>
<VTKFile type="UnstructuredGrid" version="1.0" byte_order="LittleEndian" header_type="UInt64">
  <UnstructuredGrid>
    <Piece NumberOfPoints="1860" NumberOfCells="1350">
      <PointData>
      </PointData>
      <CellData>
        <DataArray type="Int32" Name="MaterialIDs" format="ascii" RangeMin="1" RangeMax="1">
          1 1 1 1 1 1
          1 1 1 1 1 1
          1 1 1 1 1 1
          1 1 1 1 1 1
          1 1 1 1 1 1
          1 1 1 1 1 1
          1 1 1 1 1 1
          1 1 1 1 1 1
          1 1 1 1 1 1
          1 1 1 1 1 1
          1 1 1 1 1 1
          1 1 1 1 1 1
          1 1 1 1 1 1
          1 1 1 1 1 1
          1 1 1 1 1 1
          1 1 1 1 1 1
          1 1 1 1 1 1
          1 1 1 1 1 1
          1 1 1 1 1 1
          1 1 1 1 1 1
          1 1 1 1 1 1
          1 1 1 1 1 1
          1 1 1 1 1 1
          1 1 1 1 1 1
          1 1 1 1 1 1
          1 1 1 1 1 1
          1 1 1 1 1 1
          1 1 1 1 1 1
          1 1 1 1 1 1
          1 1 1 1 1 1
          1 1 1 1 1 1
          1 1 1 1 1 1
          1 1 1 1 1 1
          1 1 1 1 1 1
          1 1 1 1 1 1
          1 1 1 1 1 1
          1 1 1 1 1 1
          1 1 1 1 1 1
          1 1 1 1 1 1
          1 1 1 1 1 1
          1 1 1 1 1 1
          1 1 1 1 1 1
          1 1 1 1 1 1
          1 1 1 1 1 1
          1 1 1 1 1 1
          1 1 1 1 1 1
          1 1 1 1 1 1
          1 1 1 1 1 1
          1 1 1 1 1 1
          1 1 1 1 1 1
          1 1 1 1 1 1
          1 1 1 1 1 1
          1 1 1 1 1 1
          1 1 1 1 1 1
          1 1 1 1 1 1
          1 1 1 1 1 1
          1 1 1 1 1 1
          1 1 1 1 1 1
          1 1 1 1 1 1
          1 1 1 1 1 1
          1 1 1 1 1 1
          1 1 1 1 1 1
          1 1 1 1 1 1
          1 1 1 1 1 1
          1 1 1 1 1 1
          1 1 1 1 1 1
          1 1 1 1 1 1
          1 1 1 1 1 1
          1 1 1 1 1 1
          1 1 1 1 1 1
          1 1 1 1 1 1
          1 1 1 1 1 1
          1 1 1 1 1 1
          1 1 1 1 1 1
          1 1 1 1 1 1
          1 1 1 1 1 1
          1 1 1 1 1 1
          1 1 1 1 1 1
          1 1 1 1 1 1
          1 1 1 1 1 1
          1 1 1 1 1 1
          1 1 1 1 1 1
          1 1 1 1 1 1
          1 1 1 1 1 1
          1 1 1 1 1 1
          1 1 1 1 1 1
          1 1 1 1 1 1
          1 1 1 1 1 1
          1 1 1 1 1 1
          1 1 1 1 1 1
          1 1 1 1 1 1
          1 1 1 1 1 1
          1 1 1 1 1 1
          1 1 1 1 1 1
          1 1 1 1 1 1
          1 1 1 1 1 1
          1 1 1 1 1 1
          1 1 1 1 1 1
          1 1 1 1 1 1
          1 1 1 1 1 1
          1 1 1 1 1 1
          1 1 1 1 1 1
          1 1 1 1 1 1
          1 1 1 1 1 1
          1 1 1 1 1 1
          1 1 1 1 1 1
          1 1 1 1 1 1
          1 1 1 1 1 1
          1 1 1 1 1 1
          1 1 1 1 1 1
          1 1 1 1 1 1
          1 1 1 1 1 1
          1 1 1 1 1 1
          1 1 1 1 1 1
          1 1 1 1 1 1
          1 1 1 1 1 1
          1 1 1 1 1 1
          1 1 1 1 1 1
          1 1 1 1 1 1
          1 1 1 1 1 1
          1 1 1 1 1 1
          1 1 1 1 1 1
          1 1 1 1 1 1
          1 1 1 1 1 1
          1 1 1 1 1 1
          1 1 1 1 1 1
          1 1 1 1 1 1
          1 1 1 1 1 1
          1 1 1 1 1 1
          1 1 1 1 1 1
          1 1 1 1 1 1
          1 1 1 1 1 1
          1 1 1 1 1 1
          1 1 1 1 1 1
          1 1 1 1 1 1
          1 1 1 1 1 1
          1 1 1 1 1 1
          1 1 1 1 1 1
          1 1 1 1 1 1
          1 1 1 1 1 1
          1 1 1 1 1 1
          1 1 1 1 1 1
          1 1 1 1 1 1
          1 1 1 1 1 1
          1 1 1 1 1 1
          1 1 1 1 1 1
          1 1 1 1 1 1
          1 1 1 1 1 1
          1 1 1 1 1 1
          1 1 1 1 1 1
          1 1 1 1 1 1
          1 1 1 1 1 1
          1 1 1 1 1 1
          1 1 1 1 1 1
          1 1 1 1 1 1
          1 1 1 1 1 1
          1 1 1 1 1 1
          1 1 1 1 1 1
          1 1 1 1 1 1
          1 1 1 1 1 1
          1 1 1 1 1 1
          1 1 1 1 1 1
          1 1 1 1 1 1
          1 1 1 1 1 1
          1 1 1 1 1 1
          1 1 1 1 1 1
          1 1 1 1 1 1
          1 1 1 1 1 1
          1 1 1 1 1 1
          1 1 1 1 1 1
          1 1 1 1 1 1
          1 1 1 1 1 1
          1 1 1 1 1 1
          1 1 1 1 1 1
          1 1 1 1 1 1
          1 1 1 1 1 1
          1 1 1 1 1 1
          1 1 1 1 1 1
          1 1 1 1 1 1
          1 1 1 1 1 1
          1 1 1 1 1 1
          1 1 1 1 1 1
          1 1 1 1 1 1
          1 1 1 1 1 1
          1 1 1 1 1 1
          1 1 1 1 1 1
          1 1 1 1 1 1
          1 1 1 1 1 1
          1 1 1 1 1 1
          1 1 1 1 1 1
          1 1 1 1 1 1
          1 1 1 1 1 1
          1 1 1 1 1 1
          1 1 1 1 1 1
          1 1 1 1 1 1
          1 1 1 1 1 1
          1 1 1 1 1 1
          1 1 1 1 1 1
          1 1 1 1 1 1
          1 1 1 1 1 1
          1 1 1 1 1 1
          1 1 1 1 1 1
          1 1 1 1 1 1
          1 1 1 1 1 1
          1 1 1 1 1 1
          1 1 1 1 1 1
          1 1 1 1 1 1
          1 1 1 1 1 1
          1 1 1 1 1 1
          1 1 1 1 1 1
          1 1 1 1 1 1
          1 1 1 1 1 1
          1 1 1 1 1 1
          1 1 1 1 1 1
          1 1 1 1 1 1
          1 1 1 1 1 1
          1 1 1 1 1 1
          1 1 1 1 1 1
          1 1 1 1 1 1
          1 1 1 1 1 1
          1 1 1 1 1 1
          1 1 1 1 1 1
          1 1 1 1 1 1
          1 1 1 1 1 1
          1 1 1 1 1 1
        </DataArray>
      </CellData>
      <Points>
        <DataArray type="Float64" Name="Points" NumberOfComponents="3" format="ascii" RangeMin="17597.424851078107" RangeMax="26148.876965368003">
          12499.999908445003 12210.884460455003 -2976.9362945537996 12999.999908445003 12210.884460455003 -2976.9362945537996
          13499.999908445003 12210.884460455003 -2976.9362945537996 13999.999908445003 12210.884460455003 -2976.9362945537996
          14499.999908445003 12210.884460455003 -2976.9362945537996 14999.999908445003 12210.884460455003 -2976.9362945537996
          12499.999908445003 12510.884460455003 -2976.9362945537996 12999.999908445003 12510.884460455003 -2976.9362945537996
          13499.999908445003 12510.884460455003 -2976.9362945537996 13999.999908445003 12510.884460455003 -2976.9362945537996
          14499.999908445003 12510.884460455003 -2976.9362945537996 14999.999908445003 12510.884460455003 -2976.9362945537996
          12499.999908445003 12810.884460455003 -2976.9362945537996 12999.999908445003 12810.884460455003 -2976.9362945537996
          13499.999908445003 12810.884460455003 -2976.9362945537996 13999.999908445003 12810.884460455003 -2976.9362945537996
          14499.999908445003 12810.884460455003 -2976.9362945537996 14999.999908445003 12810.884460455003 -2976.9362945537996
          12499.999908445003 13110.884460455003 -2976.9362945537996 12999.999908445003 13110.884460455003 -2976.9362945537996
          13499.999908445003 13110.884460455003 -2976.9362945537996 13999.999908445003 13110.884460455003 -2976.9362945537996
          14499.999908445003 13110.884460455003 -2976.9362945537996 14999.999908445003 13110.884460455003 -2976.9362945537996
          12499.999908445003 13410.884460455003 -2976.9362945537996 12999.999908445003 13410.884460455003 -2976.9362945537996
          13499.999908445003 13410.884460455003 -2976.9362945537996 13999.999908445003 13410.884460455003 -2976.9362945537996
          14499.999908445003 13410.884460455003 -2976.9362945537996 14999.999908445003 13410.884460455003 -2976.9362945537996
          12499.999908445003 13710.884460455003 -2976.9362945537996 12999.999908445003 13710.884460455003 -2976.9362945537996
          13499.999908445003 13710.884460455003 -2976.9362945537996 13999.999908445003 13710.884460455003 -2976.9362945537996
          14499.999908445003 13710.884460455003 -2976.9362945537996 14999.999908445003 13710.884460455003 -2976.9362945537996
          12499.999908445003 14010.884460455003 -2976.9362945537996 12999.999908445003 14010.884460455003 -2976.9362945537996
          13499.999908445003 14010.884460455003 -2976.9362945537996 13999.999908445003 14010.884460455003 -2976.9362945537996
          14499.999908445003 14010.884460455003 -2976.9362945537996 14999.999908445003 14010.884460455003 -2976.9362945537996
          12499.999908445003 14310.884460455003 -2976.9362945537996 12999.999908445003 14310.884460455003 -2976.9362945537996
          13499.999908445003 14310.884460455003 -2976.9362945537996 13999.999908445003 14310.884460455003 -2976.9362945537996
          14499.999908445003 14310.884460455003 -2976.9362945537996 14999.999908445003 14310.884460455003 -2976.9362945537996
          12499.999908445003 14610.884460455003 -2976.9362945537996 12999.999908445003 14610.884460455003 -2976.9362945537996
          13499.999908445003 14610.884460455003 -2976.9362945537996 13999.999908445003 14610.884460455003 -2976.9362945537996
          14499.999908445003 14610.884460455003 -2976.9362945537996 14999.999908445003 14610.884460455003 -2976.9362945537996
          12499.999908445003 14910.884460455003 -2976.9362945537996 12999.999908445003 14910.884460455003 -2976.9362945537996
          13499.999908445003 14910.884460455003 -2976.9362945537996 13999.999908445003 14910.884460455003 -2976.9362945537996
          14499.999908445003 14910.884460455003 -2976.9362945537996 14999.999908445003 14910.884460455003 -2976.9362945537996
          12499.999908445003 15210.884460455003 -2976.9362945537996 12999.999908445003 15210.884460455003 -2976.9362945537996
          13499.999908445003 15210.884460455003 -2976.9362945537996 13999.999908445003 15210.884460455003 -2976.9362945537996
          14499.999908445003 15210.884460455003 -2976.9362945537996 14999.999908445003 15210.884460455003 -2976.9362945537996
          12499.999908445003 15510.884460455003 -2976.9362945537996 12999.999908445003 15510.884460455003 -2976.9362945537996
          13499.999908445003 15510.884460455003 -2976.9362945537996 13999.999908445003 15510.884460455003 -2976.9362945537996
          14499.999908445003 15510.884460455003 -2976.9362945537996 14999.999908445003 15510.884460455003 -2976.9362945537996
          12499.999908445003 15810.884460455003 -2976.9362945537996 12999.999908445003 15810.884460455003 -2976.9362945537996
          13499.999908445003 15810.884460455003 -2976.9362945537996 13999.999908445003 15810.884460455003 -2976.9362945537996
          14499.999908445003 15810.884460455003 -2976.9362945537996 14999.999908445003 15810.884460455003 -2976.9362945537996
          12499.999908445003 16110.884460455003 -2976.9362945537996 12999.999908445003 16110.884460455003 -2976.9362945537996
          13499.999908445003 16110.884460455003 -2976.9362945537996 13999.999908445003 16110.884460455003 -2976.9362945537996
          14499.999908445003 16110.884460455003 -2976.9362945537996 14999.999908445003 16110.884460455003 -2976.9362945537996
          12499.999908445003 16410.884460455003 -2976.9362945537996 12999.999908445003 16410.884460455003 -2976.9362945537996
          13499.999908445003 16410.884460455003 -2976.9362945537996 13999.999908445003 16410.884460455003 -2976.9362945537996
          14499.999908445003 16410.884460455003 -2976.9362945537996 14999.999908445003 16410.884460455003 -2976.9362945537996
          12499.999908445003 16710.884460455003 -2976.9362945537996 12999.999908445003 16710.884460455003 -2976.9362945537996
          13499.999908445003 16710.884460455003 -2976.9362945537996 13999.999908445003 16710.884460455003 -2976.9362945537996
          14499.999908445003 16710.884460455003 -2976.9362945537996 14999.999908445003 16710.884460455003 -2976.9362945537996
          12499.999908445003 17010.884460455003 -2976.9362945537996 12999.999908445003 17010.884460455003 -2976.9362945537996
          13499.999908445003 17010.884460455003 -2976.9362945537996 13999.999908445003 17010.884460455003 -2976.9362945537996
          14499.999908445003 17010.884460455003 -2976.9362945537996 14999.999908445003 17010.884460455003 -2976.9362945537996
          12499.999908445003 17310.884460455003 -2976.9362945537996 12999.999908445003 17310.884460455003 -2976.9362945537996
          13499.999908445003 17310.884460455003 -2976.9362945537996 13999.999908445003 17310.884460455003 -2976.9362945537996
          14499.999908445003 17310.884460455003 -2976.9362945537996 14999.999908445003 17310.884460455003 -2976.9362945537996
          12499.999908445003 17610.884460455003 -2976.9362945537996 12999.999908445003 17610.884460455003 -2976.9362945537996
          13499.999908445003 17610.884460455003 -2976.9362945537996 13999.999908445003 17610.884460455003 -2976.9362945537996
          14499.999908445003 17610.884460455003 -2976.9362945537996 14999.999908445003 17610.884460455003 -2976.9362945537996
          12499.999908445003 17910.884460455003 -2976.9362945537996 12999.999908445003 17910.884460455003 -2976.9362945537996
          13499.999908445003 17910.884460455003 -2976.9362945537996 13999.999908445003 17910.884460455003 -2976.9362945537996
          14499.999908445003 17910.884460455003 -2976.9362945537996 14999.999908445003 17910.884460455003 -2976.9362945537996
          12499.999908445003 18210.884460455003 -2976.9362945537996 12999.999908445003 18210.884460455003 -2976.9362945537996
          13499.999908445003 18210.884460455003 -2976.9362945537996 13999.999908445003 18210.884460455003 -2976.9362945537996
          14499.999908445003 18210.884460455003 -2976.9362945537996 14999.999908445003 18210.884460455003 -2976.9362945537996
          12499.999908445003 18510.884460455003 -2976.9362945537996 12999.999908445003 18510.884460455003 -2976.9362945537996
          13499.999908445003 18510.884460455003 -2976.9362945537996 13999.999908445003 18510.884460455003 -2976.9362945537996
          14499.999908445003 18510.884460455003 -2976.9362945537996 14999.999908445003 18510.884460455003 -2976.9362945537996
          12499.999908445003 18810.884460455003 -2976.9362945537996 12999.999908445003 18810.884460455003 -2976.9362945537996
          13499.999908445003 18810.884460455003 -2976.9362945537996 13999.999908445003 18810.884460455003 -2976.9362945537996
          14499.999908445003 18810.884460455003 -2976.9362945537996 14999.999908445003 18810.884460455003 -2976.9362945537996
          12499.999908445003 19110.884460455003 -2976.9362945537996 12999.999908445003 19110.884460455003 -2976.9362945537996
          13499.999908445003 19110.884460455003 -2976.9362945537996 13999.999908445003 19110.884460455003 -2976.9362945537996
          14499.999908445003 19110.884460455003 -2976.9362945537996 14999.999908445003 19110.884460455003 -2976.9362945537996
          12499.999908445003 19410.884460455003 -2976.9362945537996 12999.999908445003 19410.884460455003 -2976.9362945537996
          13499.999908445003 19410.884460455003 -2976.9362945537996 13999.999908445003 19410.884460455003 -2976.9362945537996
          14499.999908445003 19410.884460455003 -2976.9362945537996 14999.999908445003 19410.884460455003 -2976.9362945537996
          12499.999908445003 19710.884460455003 -2976.9362945537996 12999.999908445003 19710.884460455003 -2976.9362945537996
          13499.999908445003 19710.884460455003 -2976.9362945537996 13999.999908445003 19710.884460455003 -2976.9362945537996
          14499.999908445003 19710.884460455003 -2976.9362945537996 14999.999908445003 19710.884460455003 -2976.9362945537996
          12499.999908445003 20010.884460455003 -2976.9362945537996 12999.999908445003 20010.884460455003 -2976.9362945537996
          13499.999908445003 20010.884460455003 -2976.9362945537996 13999.999908445003 20010.884460455003 -2976.9362945537996
          14499.999908445003 20010.884460455003 -2976.9362945537996 14999.999908445003 20010.884460455003 -2976.9362945537996
          12499.999908445003 20310.884460455003 -2976.9362945537996 12999.999908445003 20310.884460455003 -2976.9362945537996
          13499.999908445003 20310.884460455003 -2976.9362945537996 13999.999908445003 20310.884460455003 -2976.9362945537996
          14499.999908445003 20310.884460455003 -2976.9362945537996 14999.999908445003 20310.884460455003 -2976.9362945537996
          12499.999908445003 20610.884460455003 -2976.9362945537996 12999.999908445003 20610.884460455003 -2976.9362945537996
          13499.999908445003 20610.884460455003 -2976.9362945537996 13999.999908445003 20610.884460455003 -2976.9362945537996
          14499.999908445003 20610.884460455003 -2976.9362945537996 14999.999908445003 20610.884460455003 -2976.9362945537996
          12499.999908445003 20910.884460455003 -2976.9362945537996 12999.999908445003 20910.884460455003 -2976.9362945537996
          13499.999908445003 20910.884460455003 -2976.9362945537996 13999.999908445003 20910.884460455003 -2976.9362945537996
          14499.999908445003 20910.884460455003 -2976.9362945537996 14999.999908445003 20910.884460455003 -2976.9362945537996
          12499.999908445003 21210.884460455003 -2976.9362945537996 12999.999908445003 21210.884460455003 -2976.9362945537996
          13499.999908445003 21210.884460455003 -2976.9362945537996 13999.999908445003 21210.884460455003 -2976.9362945537996
          14499.999908445003 21210.884460455003 -2976.9362945537996 14999.999908445003 21210.884460455003 -2976.9362945537996
          12499.999908445003 12210.884460455003 -2876.9362945537996 12999.999908445003 12210.884460455003 -2876.9362945537996
          13499.999908445003 12210.884460455003 -2876.9362945537996 13999.999908445003 12210.884460455003 -2876.9362945537996
          14499.999908445003 12210.884460455003 -2876.9362945537996 14999.999908445003 12210.884460455003 -2876.9362945537996
          12499.999908445003 12510.884460455003 -2876.9362945537996 12999.999908445003 12510.884460455003 -2876.9362945537996
          13499.999908445003 12510.884460455003 -2876.9362945537996 13999.999908445003 12510.884460455003 -2876.9362945537996
          14499.999908445003 12510.884460455003 -2876.9362945537996 14999.999908445003 12510.884460455003 -2876.9362945537996
          12499.999908445003 12810.884460455003 -2876.9362945537996 12999.999908445003 12810.884460455003 -2876.9362945537996
          13499.999908445003 12810.884460455003 -2876.9362945537996 13999.999908445003 12810.884460455003 -2876.9362945537996
          14499.999908445003 12810.884460455003 -2876.9362945537996 14999.999908445003 12810.884460455003 -2876.9362945537996
          12499.999908445003 13110.884460455003 -2876.9362945537996 12999.999908445003 13110.884460455003 -2876.9362945537996
          13499.999908445003 13110.884460455003 -2876.9362945537996 13999.999908445003 13110.884460455003 -2876.9362945537996
          14499.999908445003 13110.884460455003 -2876.9362945537996 14999.999908445003 13110.884460455003 -2876.9362945537996
          12499.999908445003 13410.884460455003 -2876.9362945537996 12999.999908445003 13410.884460455003 -2876.9362945537996
          13499.999908445003 13410.884460455003 -2876.9362945537996 13999.999908445003 13410.884460455003 -2876.9362945537996
          14499.999908445003 13410.884460455003 -2876.9362945537996 14999.999908445003 13410.884460455003 -2876.9362945537996
          12499.999908445003 13710.884460455003 -2876.9362945537996 12999.999908445003 13710.884460455003 -2876.9362945537996
          13499.999908445003 13710.884460455003 -2876.9362945537996 13999.999908445003 13710.884460455003 -2876.9362945537996
          14499.999908445003 13710.884460455003 -2876.9362945537996 14999.999908445003 13710.884460455003 -2876.9362945537996
          12499.999908445003 14010.884460455003 -2876.9362945537996 12999.999908445003 14010.884460455003 -2876.9362945537996
          13499.999908445003 14010.884460455003 -2876.9362945537996 13999.999908445003 14010.884460455003 -2876.9362945537996
          14499.999908445003 14010.884460455003 -2876.9362945537996 14999.999908445003 14010.884460455003 -2876.9362945537996
          12499.999908445003 14310.884460455003 -2876.9362945537996 12999.999908445003 14310.884460455003 -2876.9362945537996
          13499.999908445003 14310.884460455003 -2876.9362945537996 13999.999908445003 14310.884460455003 -2876.9362945537996
          14499.999908445003 14310.884460455003 -2876.9362945537996 14999.999908445003 14310.884460455003 -2876.9362945537996
          12499.999908445003 14610.884460455003 -2876.9362945537996 12999.999908445003 14610.884460455003 -2876.9362945537996
          13499.999908445003 14610.884460455003 -2876.9362945537996 13999.999908445003 14610.884460455003 -2876.9362945537996
          14499.999908445003 14610.884460455003 -2876.9362945537996 14999.999908445003 14610.884460455003 -2876.9362945537996
          12499.999908445003 14910.884460455003 -2876.9362945537996 12999.999908445003 14910.884460455003 -2876.9362945537996
          13499.999908445003 14910.884460455003 -2876.9362945537996 13999.999908445003 14910.884460455003 -2876.9362945537996
          14499.999908445003 14910.884460455003 -2876.9362945537996 14999.999908445003 14910.884460455003 -2876.9362945537996
          12499.999908445003 15210.884460455003 -2876.9362945537996 12999.999908445003 15210.884460455003 -2876.9362945537996
          13499.999908445003 15210.884460455003 -2876.9362945537996 13999.999908445003 15210.884460455003 -2876.9362945537996
          14499.999908445003 15210.884460455003 -2876.9362945537996 14999.999908445003 15210.884460455003 -2876.9362945537996
          12499.999908445003 15510.884460455003 -2876.9362945537996 12999.999908445003 15510.884460455003 -2876.9362945537996
          13499.999908445003 15510.884460455003 -2876.9362945537996 13999.999908445003 15510.884460455003 -2876.9362945537996
          14499.999908445003 15510.884460455003 -2876.9362945537996 14999.999908445003 15510.884460455003 -2876.9362945537996
          12499.999908445003 15810.884460455003 -2876.9362945537996 12999.999908445003 15810.884460455003 -2876.9362945537996
          13499.999908445003 15810.884460455003 -2876.9362945537996 13999.999908445003 15810.884460455003 -2876.9362945537996
          14499.999908445003 15810.884460455003 -2876.9362945537996 14999.999908445003 15810.884460455003 -2876.9362945537996
          12499.999908445003 16110.884460455003 -2876.9362945537996 12999.999908445003 16110.884460455003 -2876.9362945537996
          13499.999908445003 16110.884460455003 -2876.9362945537996 13999.999908445003 16110.884460455003 -2876.9362945537996
          14499.999908445003 16110.884460455003 -2876.9362945537996 14999.999908445003 16110.884460455003 -2876.9362945537996
          12499.999908445003 16410.884460455003 -2876.9362945537996 12999.999908445003 16410.884460455003 -2876.9362945537996
          13499.999908445003 16410.884460455003 -2876.9362945537996 13999.999908445003 16410.884460455003 -2876.9362945537996
          14499.999908445003 16410.884460455003 -2876.9362945537996 14999.999908445003 16410.884460455003 -2876.9362945537996
          12499.999908445003 16710.884460455003 -2876.9362945537996 12999.999908445003 16710.884460455003 -2876.9362945537996
          13499.999908445003 16710.884460455003 -2876.9362945537996 13999.999908445003 16710.884460455003 -2876.9362945537996
          14499.999908445003 16710.884460455003 -2876.9362945537996 14999.999908445003 16710.884460455003 -2876.9362945537996
          12499.999908445003 17010.884460455003 -2876.9362945537996 12999.999908445003 17010.884460455003 -2876.9362945537996
          13499.999908445003 17010.884460455003 -2876.9362945537996 13999.999908445003 17010.884460455003 -2876.9362945537996
          14499.999908445003 17010.884460455003 -2876.9362945537996 14999.999908445003 17010.884460455003 -2876.9362945537996
          12499.999908445003 17310.884460455003 -2876.9362945537996 12999.999908445003 17310.884460455003 -2876.9362945537996
          13499.999908445003 17310.884460455003 -2876.9362945537996 13999.999908445003 17310.884460455003 -2876.9362945537996
          14499.999908445003 17310.884460455003 -2876.9362945537996 14999.999908445003 17310.884460455003 -2876.9362945537996
          12499.999908445003 17610.884460455003 -2876.9362945537996 12999.999908445003 17610.884460455003 -2876.9362945537996
          13499.999908445003 17610.884460455003 -2876.9362945537996 13999.999908445003 17610.884460455003 -2876.9362945537996
          14499.999908445003 17610.884460455003 -2876.9362945537996 14999.999908445003 17610.884460455003 -2876.9362945537996
          12499.999908445003 17910.884460455003 -2876.9362945537996 12999.999908445003 17910.884460455003 -2876.9362945537996
          13499.999908445003 17910.884460455003 -2876.9362945537996 13999.999908445003 17910.884460455003 -2876.9362945537996
          14499.999908445003 17910.884460455003 -2876.9362945537996 14999.999908445003 17910.884460455003 -2876.9362945537996
          12499.999908445003 18210.884460455003 -2876.9362945537996 12999.999908445003 18210.884460455003 -2876.9362945537996
          13499.999908445003 18210.884460455003 -2876.9362945537996 13999.999908445003 18210.884460455003 -2876.9362945537996
          14499.999908445003 18210.884460455003 -2876.9362945537996 14999.999908445003 18210.884460455003 -2876.9362945537996
          12499.999908445003 18510.884460455003 -2876.9362945537996 12999.999908445003 18510.884460455003 -2876.9362945537996
          13499.999908445003 18510.884460455003 -2876.9362945537996 13999.999908445003 18510.884460455003 -2876.9362945537996
          14499.999908445003 18510.884460455003 -2876.9362945537996 14999.999908445003 18510.884460455003 -2876.9362945537996
          12499.999908445003 18810.884460455003 -2876.9362945537996 12999.999908445003 18810.884460455003 -2876.9362945537996
          13499.999908445003 18810.884460455003 -2876.9362945537996 13999.999908445003 18810.884460455003 -2876.9362945537996
          14499.999908445003 18810.884460455003 -2876.9362945537996 14999.999908445003 18810.884460455003 -2876.9362945537996
          12499.999908445003 19110.884460455003 -2876.9362945537996 12999.999908445003 19110.884460455003 -2876.9362945537996
          13499.999908445003 19110.884460455003 -2876.9362945537996 13999.999908445003 19110.884460455003 -2876.9362945537996
          14499.999908445003 19110.884460455003 -2876.9362945537996 14999.999908445003 19110.884460455003 -2876.9362945537996
          12499.999908445003 19410.884460455003 -2876.9362945537996 12999.999908445003 19410.884460455003 -2876.9362945537996
          13499.999908445003 19410.884460455003 -2876.9362945537996 13999.999908445003 19410.884460455003 -2876.9362945537996
          14499.999908445003 19410.884460455003 -2876.9362945537996 14999.999908445003 19410.884460455003 -2876.9362945537996
          12499.999908445003 19710.884460455003 -2876.9362945537996 12999.999908445003 19710.884460455003 -2876.9362945537996
          13499.999908445003 19710.884460455003 -2876.9362945537996 13999.999908445003 19710.884460455003 -2876.9362945537996
          14499.999908445003 19710.884460455003 -2876.9362945537996 14999.999908445003 19710.884460455003 -2876.9362945537996
          12499.999908445003 20010.884460455003 -2876.9362945537996 12999.999908445003 20010.884460455003 -2876.9362945537996
          13499.999908445003 20010.884460455003 -2876.9362945537996 13999.999908445003 20010.884460455003 -2876.9362945537996
          14499.999908445003 20010.884460455003 -2876.9362945537996 14999.999908445003 20010.884460455003 -2876.9362945537996
          12499.999908445003 20310.884460455003 -2876.9362945537996 12999.999908445003 20310.884460455003 -2876.9362945537996
          13499.999908445003 20310.884460455003 -2876.9362945537996 13999.999908445003 20310.884460455003 -2876.9362945537996
          14499.999908445003 20310.884460455003 -2876.9362945537996 14999.999908445003 20310.884460455003 -2876.9362945537996
          12499.999908445003 20610.884460455003 -2876.9362945537996 12999.999908445003 20610.884460455003 -2876.9362945537996
          13499.999908445003 20610.884460455003 -2876.9362945537996 13999.999908445003 20610.884460455003 -2876.9362945537996
          14499.999908445003 20610.884460455003 -2876.9362945537996 14999.999908445003 20610.884460455003 -2876.9362945537996
          12499.999908445003 20910.884460455003 -2876.9362945537996 12999.999908445003 20910.884460455003 -2876.9362945537996
          13499.999908445003 20910.884460455003 -2876.9362945537996 13999.999908445003 20910.884460455003 -2876.9362945537996
          14499.999908445003 20910.884460455003 -2876.9362945537996 14999.999908445003 20910.884460455003 -2876.9362945537996
          12499.999908445003 21210.884460455003 -2876.9362945537996 12999.999908445003 21210.884460455003 -2876.9362945537996
          13499.999908445003 21210.884460455003 -2876.9362945537996 13999.999908445003 21210.884460455003 -2876.9362945537996
          14499.999908445003 21210.884460455003 -2876.9362945537996 14999.999908445003 21210.884460455003 -2876.9362945537996
          12499.999908445003 12210.884460455003 -2776.9362945537996 12999.999908445003 12210.884460455003 -2776.9362945537996
          13499.999908445003 12210.884460455003 -2776.9362945537996 13999.999908445003 12210.884460455003 -2776.9362945537996
          14499.999908445003 12210.884460455003 -2776.9362945537996 14999.999908445003 12210.884460455003 -2776.9362945537996
          12499.999908445003 12510.884460455003 -2776.9362945537996 12999.999908445003 12510.884460455003 -2776.9362945537996
          13499.999908445003 12510.884460455003 -2776.9362945537996 13999.999908445003 12510.884460455003 -2776.9362945537996
          14499.999908445003 12510.884460455003 -2776.9362945537996 14999.999908445003 12510.884460455003 -2776.9362945537996
          12499.999908445003 12810.884460455003 -2776.9362945537996 12999.999908445003 12810.884460455003 -2776.9362945537996
          13499.999908445003 12810.884460455003 -2776.9362945537996 13999.999908445003 12810.884460455003 -2776.9362945537996