<?xml version="1.0"?>
<VTKFile type="UnstructuredGrid" version="0.1" byte_order="LittleEndian" header_type="UInt32">
  <UnstructuredGrid>
    <FieldData>
      <DataArray type="Int8" Name="IntegrationPointMetaData" NumberOfTuples="97" format="ascii" RangeMin="34" RangeMax="125">
        123 34 105 110 116 101
        103 114 97 116 105 111
        110 95 112 111 105 110
        116 95 97 114 114 97
        121 115 34 58 91 123
        34 105 110 116 101 103
        114 97 116 105 111 110
        95 111 114 100 101 114
        34 58 50 44 34 110
        97 109 101 34 58 34
        115 105 103 109 97 95
        105 112 34 44 34 110
        117 109 98 101 114 95
        111 102 95 99 111 109
        112 111 110 101 110 116
        115 34 58 54 125 93
        125
      </DataArray>
      <DataArray type="Int8" Name="OGS_VERSION" NumberOfTuples="40" format="ascii" RangeMin="45" RangeMax="121">
        54 46 50 46 48 45
        49 53 45 103 53 51
        56 49 101 101 99 99
        100 46 100 105 114 116
        121 46 50 48 49 57
        48 52 48 49 49 53
        48 52 49 50
      </DataArray>
      <DataArray type="Float64" Name="sigma_ip" NumberOfComponents="6" NumberOfTuples="2160" format="ascii" RangeMin="1999999.9999" RangeMax="2000000.0001">
        2000000 8.2988990471e-06 -3.8900179788e-06 -1.0825518697e-06 -9.5251421335e-07 8.4283222498e-08
        1999999.9999 4.1922321543e-06 7.6950527728e-08 2.9846514664e-08 -2.0877538781e-06 -1.4205005197e-06
        1999999.9999 6.0898019001e-06 6.7783985287e-06 6.7134892884e-07 -1.4151956839e-06 6.7404057752e-07
        2000000 8.2171754912e-06 3.7415884435e-07 -2.3544343314e-06 4.1576203312e-06 -1.0108260807e-06
        1999999.9999 1.6554258764e-06 1.8938444555e-06 -1.1819775626e-06 -1.7680789711e-08 -1.0619781866e-06
        1999999.9999 5.8033037931e-07 5.6307762861e-06 -1.5806051017e-06 -2.3852253787e-06 2.916611571e-08
        1999999.9999 9.6338335425e-06 8.947099559e-06 -5.0299019718e-06 1.1079354823e-05 -4.6346794222e-06
        2000000 1.1015217751e-06 8.5035571828e-06 -1.3391018055e-06 3.8639473255e-06 -2.1896364341e-06
        2000000 -2.4612527341e-06 9.7601441666e-06 -3.1987375597e-07 -1.5437383791e-06 -1.0597004073e-06
        2000000 7.247319445e-06 2.1266750991e-06 -1.4897083534e-06 1.1601928172e-06 3.8431376589e-06
        2000000 4.1278544813e-06 2.4621840566e-06 9.3340674203e-07 1.1483984368e-06 1.2549431631e-06
        2000000 3.7116697058e-06 4.4313492253e-06 2.3669833797e-06 4.8729262668e-07 2.2656135187e-06
        2000000 4.8880465329e-06 1.8150312826e-06 -2.5879117948e-06 3.3933196816e-06 8.5155522706e-07
        2000000 2.6519410312e-06 3.0390219763e-06 4.1966240815e-07 2.4839736674e-06 2.7680737713e-07
        2000000 2.6013003662e-06 5.3795520216e-06 1.3385843189e-06 9.2516289415e-07 8.440852132e-07
        2000000 2.9857037589e-06 2.6861671358e-06 -5.0893362579e-06 4.9800483739e-06 -5.1529613463e-06
        2000000 2.1171290427e-06 5.2830437198e-06 9.6095331657e-07 3.1727961517e-06 -2.67212554e-06
        2000000 2.9167858884e-06 8.4796920419e-06 3.8225675694e-06 7.164433278e-07 -1.5061714925e-06
        1999999.9999 6.4210034907e-06 8.178409189e-06 2.5899014826e-06 3.1642288748e-06 -8.5373298287e-07
        2000000 4.4100452214e-06 4.9216905609e-06 -1.7124491693e-07 4.3183292464e-06 -4.5254388547e-06
        2000000 1.8001301214e-06 2.1979212761e-06 -4.4367869438e-06 2.3656704972e-06 -4.5980546726e-06
        2000000 1.7425045371e-06 3.1634699553e-06 1.6649649888e-06 2.480106893e-06 7.5242780767e-07
        2000000 3.9525330067e-06 4.1318126023e-06 1.422129644e-08 4.8789588181e-06 -3.4658181067e-07
        2000000 5.0467206165e-06 5.116336979e-06 -4.242685174e-06 4.1711522446e-06 -3.0216421701e-07
        2000000 -3.5216799006e-06 -3.7946738303e-06 -6.6304398879e-07 -1.3088384266e-06 -1.1407229855e-06
        2000000 3.3942051232e-06 1.8831342459e-06 1.2540040208e-06 2.3349567134e-06 1.3766099957e-06
        1999999.9999 8.6765503511e-06 7.0593087003e-06 -5.3487982533e-07 2.8718873187e-06 2.5785778712e-06
        2000000 4.1301827878e-06 1.7502345145e-05 2.1661830342e-06 -4.2311040172e-06 1.4544054704e-06
        2000000 6.9162342697e-06 1.2229080312e-05 6.1001599429e-07 -1.3048326976e-07 2.004857807e-06
        2000000 1.1645257473e-05 5.8350851759e-06 -1.0107889463e-06 -7.0758855832e-07 -2.7043462637e-08
        2000000 2.7072383091e-06 7.5902789831e-07 3.5998902414e-06 -2.5036141977e-06 4.2829964162e-06
        2000000 6.292713806e-06 5.4888660088e-06 1.2741284969e-06 7.2054249192e-07 1.4951144106e-06
        2000000 1.2386590242e-05 9.6631702036e-06 -1.9050979041e-06 -7.3266269722e-07 1.0982214097e-08
        2000000 8.9907553047e-07 -1.7681973986e-05 3.53304344e-06 -8.5184511535e-07 3.4322102317e-06
        2000000 5.1447423175e-06 -3.0879164115e-06 1.6774229979e-07 1.4964272931e-06 -2.2441234531e-06
        2000000 1.246703323e-05 1.1519296095e-05 -4.8399460837e-06 -8.3277238271e-07 -2.7320701253e-06
        2000000 1.3963552192e-05 1.7879647203e-05 3.4986210028e-06 3.8179006075e-07 -8.1721280861e-06
        2000000 1.2667151168e-05 1.4559947886e-05 6.0899060431e-07 6.6939757339e-07 -1.201220395e-06
        2000000 1.0947231203e-05 9.3292910606e-06 -1.7797032518e-06 1.6587359843e-07 3.1869695327e-06
        2000000 8.2270707935e-06 1.1345953681e-05 4.5440252458e-06 -1.4348559793e-06 -7.2141455255e-07
        2000000 8.2497717813e-06 1.1316384189e-05 1.0631473228e-06 -7.8531455569e-07 1.0566308258e-06
        2000000 8.4148487076e-06 9.9417520687e-06 -2.704949998e-06 -9.2718252907e-07 4.1368639705e-06
        2000000 1.6567064449e-06 1.7655547708e-06 4.0889677174e-06 -3.0568504202e-06 3.1902756967e-06
        2000000 2.8600916266e-06 4.8906076699e-06 -2.5287841675e-07 -2.0453367532e-06 2.2382729804e-07
        2000000 4.7725625336e-06 7.2373077273e-06 -5.6700807226e-06 -1.8260566284e-06 2.4455742504e-06
        2000000 1.8049147911e-05 6.2976032495e-06 -7.4022135461e-07 7.7448375432e-06 -1.2437961199e-05
        2000000 1.3624783605e-05 5.2481191233e-06 2.5061201741e-07 2.9320020037e-06 9.5252020278e-07
        2000000 6.4095947891e-06 1.4994293451e-06 2.3095124279e-06 1.2123559384e-06 1.1760571334e-05
        2000000 9.2866830528e-06 1.3835728168e-05 -8.3511784248e-08 2.0662662083e-06 -5.5803447253e-06
        2000000 6.7022629082e-06 9.3672424555e-06 4.9546460143e-07 -1.147286799e-06 7.6223848977e-07
        2000000 1.8931459635e-06 2.7648638934e-06 1.3536393437e-06 -1.2670753472e-06 8.4078527827e-06
        2000000 -7.5635034591e-07 1.6986276023e-05 -9.2723044449e-07 -3.1485605327e-06 -2.121594143e-06
        2000000 -1.6414560378e-06 8.9573441073e-06 -1.029568197e-06 -4.7623326875e-06 -2.3779033037e-06
        2000000 -4.1841994971e-06 -6.3783954829e-07 -1.6426651527e-06 -3.2822062201e-06 2.5543087113e-06
        2000000 9.1164838523e-06 1.0793097317e-05 -3.1225616262e-06 2.8182352259e-07 -4.452046807e-06
        2000000 7.7793374658e-06 1.1858530343e-05 -2.7840775213e-07 -4.3373756256e-07 -1.7406521851e-06
        2000000 4.3087638915e-06 1.2171687558e-05 -3.7972969773e-07 -1.2257944167e-06 -9.8062738772e-07
        2000000 -3.011431545e-06 4.6731438488e-06 -2.5476101357e-06 2.0296019284e-06 4.6506945522e-07
        2000000 6.0786260292e-06 6.9962115958e-06 1.294252973e-06 7.0698961558e-07 1.3946261933e-06
        2000000 1.3118609786e-05 8.6503569037e-06 1.7484959393e-06 -6.9220471402e-07 6.4294107464e-07
        2000000 -1.5440047719e-05 8.46455805e-07 3.0223501204e-06 -8.8318599215e-07 3.8849073267e-06
        2000000 3.4779077396e-06 3.8279686123e-06 3.9800751356e-06 -2.8133226975e-06 3.7625103829e-06
        2000000 2.0429841243e-05 6.2240287662e-06 1.1077398077e-06 -4.8192927411e-06 2.2288713762e-06
        2000000 5.5826967582e-06 3.8426369429e-06 2.6223821475e-06 -1.0008476947e-06 -5.7678665102e-06
        2000000 8.6766667664e-06 8.320203051e-06 4.4659470701e-06 -7.106431663e-07 -2.7894248821e-06
        2000000 8.3110062405e-06 1.1603347957e-05 3.4470352624e-06 -2.2617994513e-07 -1.762975979e-06
        2000000 5.0326343626e-06 2.7781352401e-06 3.8743449714e-07 -1.6656885117e-06 -5.1086461719e-07
        2000000 1.1854339391e-05 9.0377870947e-06 1.3257238204e-06 -8.1045098464e-07 9.1966939133e-07
        2000000 1.5299883671e-05 1.418532338e-05 -1.0404545802e-06 2.3847504171e-07 6.6907174854e-07
        2000000 3.4529948607e-06 1.8212012947e-06 3.1473830112e-06 -3.1099359132e-06 3.8484113497e-06
        2000000 1.3404409401e-05 9.2621194199e-06 -7.0161110976e-07 -1.6899289223e-06 4.4604655461e-06
        2000000 2.0060222596e-05 1.5675090253e-05 -8.2963715704e-06 -7.6219057435e-08 3.661023728e-06
        2000000 -1.7916318029e-06 -4.9339141697e-06 3.2281288779e-06 -2.7356685733e-06 -2.1797538789e-06
        2000000 1.8230639398e-06 1.6526319087e-06 9.2856249314e-06 -1.1215466358e-06 1.0648147794e-06
        1999999.9999 6.4983032644e-07 6.6012144089e-06 1.2565694124e-05 9.5620969006e-07 2.3590965017e-06
        2000000 8.9200912043e-06 -1.8917489797e-06 -1.8171731097e-06 -4.5091188629e-06 -1.7984477638e-06
        2000000 9.5624709502e-06 6.9991219789e-06 1.4327093685e-06 -1.1584606748e-06 1.3250530045e-07
        2000000 5.5019045249e-06 1.4336779714e-05 1.4617269465e-06 2.6557312793e-06 3.8221650799e-07
        2000000 1.7872895114e-05 -9.328359738e-07 -1.8672938361e-06 -3.1801655432e-06 -1.7157966603e-06
        2000000 1.4943419956e-05 9.6631702036e-06 -5.3073945395e-06 1.9066503636e-06 -3.6904455923e-07
        2000000 7.3937699199e-06 1.8788967282e-05 -1.2409294602e-05 7.4570958674e-06 -4.3377409806e-07
        2000000 1.0775285773e-05 -1.5339814126e-05 8.3418828335e-07 -3.609298434e-06 1.9159651212e-06
        2000000 1.0993564501e-05 -9.733485058e-07 -3.8493331226e-07 -1.2443016276e-05 -3.1238170101e-06
        2000000 1.1100084521e-05 1.2569827959e-05 -3.3247934447e-06 -1.7918634665e-05 -2.9246613615e-06
        2000000 1.7124926671e-05 2.9698712751e-06 -3.0421020541e-07 2.6115652416e-06 -4.2778886325e-07
[...]
      <PointData>
        <DataArray type="Float64" Name="MaterialForces" NumberOfComponents="3" format="ascii" RangeMin="8.6616489366e-13" RangeMax="0.33333333335">
          5.9740684621e-12 3.5560582257e-12 3.3217872897e-12 -0.16666666667 2.8606769731e-12 2.5546439963e-12
          -0.083333333333 0.083333333331 1.5926218677e-12 3.7488276372e-12 0.16666666666 2.4135068943e-12
          3.925429426e-12 2.5270896487e-12 0.16666666666 -0.083333333333 1.7413223641e-12 0.083333333331
          -0.041666666667 0.041666666666 0.041666666666 1.9260287809e-13 0.083333333331 0.083333333331
          4.3059028565e-12 1.1758857776e-12 -0.16666666666 -0.083333333333 5.8680144077e-13 -0.08333333333
          -0.041666666667 0.041666666666 -0.041666666665 2.1613613677e-12 0.083333333331 -0.08333333333
          4.5647166602e-12 -0.16666666666 1.0558984243e-12 -0.083333333333 -0.08333333333 4.3023223872e-13
          2.3785140524e-12 -0.08333333333 0.083333333331 -0.041666666667 -0.041666666665 0.041666666666
          1.9005769181e-12 -0.083333333331 -0.083333333331 -0.041666666666 -0.041666666665 -0.041666666665
          1.7712220579e-11 -1.2582851427e-12 -7.6995354537e-13 6.0715529826e-12 0.16666666667 -1.3099729634e-12
          6.2318067373e-12 -1.5480394744e-12 0.16666666667 3.1749047835e-12 0.083333333334 0.083333333334
          8.3054535471e-12 1.0897532876e-13 -0.16666666667 4.6041156998e-12 0.083333333334 -0.083333333333
          8.5407445005e-12 -0.16666666667 3.5857428138e-13 4.8011455922e-12 -0.083333333334 0.083333333334
          4.2964451441e-12 -0.083333333333 -0.083333333333 1.2491521706e-11 -5.7781418539e-12 -5.0083895364e-12
          5.938305403e-12 0.16666666667 -2.9442281946e-12 5.9062685298e-12 -3.3195460269e-12 0.16666666667
          1.8545442959e-12 0.083333333336 0.083333333336 9.0468674219e-12 -2.5742741272e-12 -0.16666666667
          3.8074474129e-12 0.083333333335 -0.083333333337 9.0007445941e-12 -0.16666666667 -2.1816229379e-12
          3.7686034848e-12 -0.083333333337 0.083333333336 3.7566130762e-12 -0.083333333338 -0.083333333337
          -1.304863162e-11 -2.2424909152e-12 -1.945381356e-12 -8.3897055969e-12 0.16666666667 -7.7027967338e-13
          -8.5827456253e-12 -9.153858227e-13 0.16666666667 -4.9904455568e-12 0.083333333337 0.083333333337
          -5.6879986832e-12 -2.4833468615e-12 -0.16666666667 -2.1491280977e-12 0.083333333335 -0.083333333337
          -5.9697177757e-12 -0.16666666667 -2.3325230636e-12 -2.385078246e-12 -0.083333333337 0.083333333335
          -3.2613217682e-12 -0.083333333337 -0.083333333337 -2.1401484751e-11 -2.0527329836e-12 -2.4807170207e-12
          -1.0170919662e-11 0.16666666667 -1.9635681969e-13 -1.0318704224e-11 1.1789180743e-14 0.16666666667
          -6.4268868005e-12 0.083333333334 0.083333333334 -9.1169363725e-12 -1.7948420528e-12 -0.16666666667
          -4.680755783e-12 0.083333333334 -0.083333333334 -9.3345123298e-12 -0.16666666667 -2.0146384561e-12
          -4.8620690807e-12 -0.083333333333 0.083333333334 -2.7750787779e-12 -0.083333333334 -0.083333333334
          -1.2657097592e-12 -1.1139075773e-12 -1.7466167401e-12 -1.2016776463e-12 0.16666666666 -5.3616833195e-13
          -1.1492126695e-12 -2.2825491497e-13 0.16666666666 -1.6535384173e-14 0.083333333332 0.083333333332
          3.4099806312e-13 4.8838016964e-13 -0.16666666666 -2.315161951e-13 0.083333333331 -0.083333333331
          4.1539688356e-13 -0.16666666666 1.6494444699e-13 -1.6774776013e-13 -0.083333333331 0.083333333331
          1.2981907216e-12 -0.083333333331 -0.083333333332 1.9833995557e-12 2.091687934e-12 1.9687237951e-12
          -8.4569851122e-13 0.16666666666 -1.0953044027e-13 -6.5641242442e-13 -4.9342474551e-14 0.16666666666
          -7.1344319341e-13 0.08333333333 0.08333333333 1.4497153478e-12 1.5347306759e-12 -0.16666666666
          -5.6757376576e-13 0.083333333331 -0.08333333333 1.7234338956e-12 -0.16666666666 1.472523492e-12
          -3.3641839314e-13 -0.08333333333 0.083333333331 2.3268192928e-13 -0.08333333333 -0.08333333333
          5.2058843347e-12 2.1818172269e-12 2.704766966e-12 3.0697319686e-12 0.16666666667 2.1524240723e-12
          3.1833147229e-12 1.8972531879e-12 0.16666666667 1.7839479893e-12 0.083333333334 0.083333333334
          -8.0623702159e-13 -4.0431546999e-13 -0.16666666667 -4.9641540878e-13 0.083333333333 -0.083333333333
          -6.4281913126e-13 -0.16666666667 -1.3791051634e-13 -3.5812325327e-13 -0.083333333333 0.083333333333
          -6.0774996147e-13 -0.083333333332 -0.083333333332 9.3052232586e-12 -8.2150258818e-13 -2.5191654318e-13
          8.327304124e-12 0.16666666667 1.0126066652e-12 8.2312351379e-12 7.3448191973e-13 0.16666666667
          6.6473632154e-12 0.083333333335 0.083333333335 5.7498381056e-12 -1.1236983566e-12 -0.16666666667
          4.4739836835e-12 0.083333333335 -0.083333333336 5.6082777311e-12 -0.16666666667 -8.3318074662e-13
          4.3566400487e-12 -0.083333333336 0.083333333335 3.1600069783e-12 -0.083333333334 -0.083333333334
          -6.9326627772e-12 -3.9103581484e-12 -3.9778735861e-12 -2.8651178652e-12 0.16666666667 -2.2471538519e-12
          -3.0716887367e-12 -2.2149643231e-12 0.16666666667 -1.796986171e-12 0.083333333334 0.083333333334
          2.4404228638e-12 -1.6394247071e-12 -0.16666666667 1.6425888427e-12 0.083333333333 -0.083333333334
          2.136353594e-12 -0.16666666667 -1.6748269438e-12 1.3897633044e-12 -0.083333333334 0.083333333333
          3.5771385853e-12 -0.083333333332 -0.083333333332 -1.1453581139e-11 -1.8090945408e-12 -2.5313015573e-12
          -7.3467829043e-12 0.16666666667 -1.2396333959e-12 -7.441498806e-12 -8.8842821988e-13 0.16666666667
          -5.6486759714e-12 0.083333333332 0.083333333332 -5.9149490861e-12 3.6097513867e-13 -0.16666666667
          -2.5303717455e-12 0.083333333334 -0.083333333334 -6.0568980387e-12 -0.16666666667 -7.2858385991e-15
          -2.6488117255e-12 -0.083333333333 0.083333333334 -3.3443525727e-12 -0.083333333333 -0.083333333334
          2.9841129567e-12 2.2504220709e-13 -4.5809883664e-13 -1.5686757449e-13 0.16666666667 -1.3783002517e-12
          -3.4042213493e-14 -1.0452333443e-12 0.16666666667 -6.0701443871e-13 0.083333333333 0.083333333333
          -1.837405228e-12 2.1897761382e-12 -0.16666666667 -3.422026551e-12 0.083333333334 -0.083333333334
          -1.6581250262e-12 -0.16666666667 1.84178367e-12 -3.2713762255e-12 -0.083333333334 0.083333333334
          -3.6698560857e-12 -0.083333333333 -0.083333333333 4.5532119741e-12 2.915098718e-12 2.9296010062e-12
          -7.4949768614e-13 0.16666666667 1.980436648e-12 -5.3997084581e-13 1.9742124602e-12 0.16666666667
          8.4422052682e-13 0.083333333335 0.083333333335 4.0614039909e-13 1.7241624795e-12 -0.16666666667
          -2.3594320941e-12 0.083333333335 -0.083333333334 7.2106903781e-13 -0.16666666667 1.7298384947e-12
          -2.09698231e-12 -0.083333333334 0.083333333335 -6.3216099022e-13 -0.083333333334 -0.083333333334
          -6.9892286403e-12 2.7439717165e-12 3.3814340217e-12 -9.1131963087e-13 0.16666666667 1.7664342211e-12
          -8.3803103346e-13 1.4581669205e-12 0.16666666667 6.6169292268e-14 0.083333333335 0.083333333335
          -2.2793295029e-12 3.196262699e-13 -0.16666666667 8.0706274996e-14 0.083333333333 -0.083333333333
          -2.1622911794e-12 -0.16666666667 6.4142441358e-13 1.7530421559e-13 -0.083333333333 0.083333333334
          -2.0666801603e-13 -0.083333333333 -0.083333333333 -2.7037747041e-12 -2.4193147485e-12 -1.90319982e-12
          -2.0258100752e-13 0.16666666667 4.7378767576e-13 -3.4530711623e-13 2.2176011027e-13 0.16666666667
          6.2354982289e-13 0.083333333333 0.083333333333 9.1440049976e-13 -1.5825882271e-12 -0.16666666667
          1.9397816686e-12 0.083333333333 -0.083333333333 7.1445627192e-13 -0.16666666667 -1.3199580318e-12
          1.7689530396e-12 -0.083333333333 0.083333333333 1.0112050086e-12 -0.083333333335 -0.083333333334
          -3.235960111e-12 -2.4521912279e-12 -2.6475557857e-12 -2.9330704532e-14 0.16666666666 -2.0482920915e-12
          -2.3453461395e-13 -1.9552415242e-12 0.16666666666 7.472633623e-13 0.083333333332 0.083333333332
          1.7356532878e-12 -9.9401042952e-13 -0.16666666667 1.4960532813e-12 0.083333333333 -0.083333333334
          1.4376416724e-12 -0.16666666667 -1.0941872408e-12 1.2458020726e-12 -0.083333333334 0.083333333333
          1.3695225509e-12 -0.083333333334 -0.083333333334 6.0942639823e-12 1.29449923e-12 5.5571519608e-13
          -1.9085774627e-12 0.16666666667 -2.2284257772e-13 -1.9482887526e-12 1.3779255514e-13 0.16666666667
          -2.7554764026e-12 0.083333333332 0.083333333332 3.3823846501e-12 7.3976241799e-13 -0.16666666667
          2.2837981506e-13 0.083333333333 -0.083333333332 3.3212044226e-12 -0.16666666666 3.6133596115e-13
          1.7669893326e-13 -0.083333333332 0.083333333332 3.7711500589e-12 -0.083333333333 -0.083333333333
          1.4902939993e-12 5.7925331198e-12 5.2765500302e-12 1.5299567169e-13 0.16666666667 3.2200492273e-12
          3.4993535847e-13 3.4703490082e-12 0.16666666667 6.5163152652e-14 0.083333333334 0.083333333334
          6.4705879543e-13 3.5874705984e-12 -0.16666666666 -1.443359321e-12 0.083333333335 -0.083333333332
          9.2311575051e-13 -0.16666666666 3.3237163022e-12 -1.2068193667e-12 -0.083333333332 0.083333333335
          5.4243415315e-13 -0.083333333332 -0.083333333332 5.2114562665e-13 3.6931707692e-12 3.9777348082e-12
          2.4188012704e-12 0.16666666667 9.2502394633e-13 2.7091245913e-12 7.8737710796e-13 0.16666666667
          3.6950095761e-12 0.083333333333 0.083333333333 -2.4959201372e-12 1.8297099946e-12 -0.16666666666
          1.8446771888e-12 0.083333333334 -0.083333333332 -2.1059681776e-12 -0.16666666666 1.9747536939e-12
          2.1822127438e-12 -0.083333333332 0.083333333334 -1.0632883463e-12 -0.083333333332 -0.083333333332
          0.16666666667 -7.5094097607e-13 -3.3707064917e-13 0.083333333339 0.083333333335 -8.0352391407e-14
          0.08333333334 -2.8383545514e-13 0.083333333335 0.041666666671 0.041666666666 0.041666666667
          0.083333333334 -7.5911499309e-13 -0.083333333333 0.041666666668 0.041666666666 -0.041666666665
          0.083333333334 -0.083333333333 -5.4828364071e-13 0.041666666668 -0.041666666665 0.041666666666
          0.041666666668 -0.041666666667 -0.041666666667 0.16666666667 -0.16666666666 -7.7988136782e-13
          0.16666666667 -0.16666666666 -1.4535031707e-12 0.16666666667 -8.4283318172e-13 -0.16666666666
          0.33333333333 -4.0806496637e-14 -3.2017444251e-12 0.16666666667 -3.1881832244e-13 0.16666666666
          0.33333333333 -3.3502367547e-12 8.7459607698e-14 0.33333333333 -1.5000778397e-12 -2.4143108845e-12
          0.16666666667 -1.5826810348e-12 -0.16666666666 0.33333333333 -2.6834452087e-12 -1.3506418206e-12
          0.16666666667 -6.2608501283e-13 0.16666666666 0.16666666667 0.16666666666 -2.5572252649e-13
          0.16666666667 0.16666666666 -4.8940669226e-13 1.8378831443e-13 -0.16666666666 -0.16666666666
          -3.6930105241e-13 -0.33333333332 -2.8978208721e-12 4.0598150926e-13 -0.16666666666 0.16666666666
          -4.0942856744e-13 -2.9946600755e-12 -0.33333333332 -2.454427178e-13 -3.8200831387e-12 -3.6227409961e-12
          -4.4996357985e-13 -1.0472733791e-12 0.33333333332 3.2292918339e-13 0.16666666666 -0.16666666666
          -5.8238353376e-13 0.33333333332 -9.5515262366e-13 3.2546881856e-14 0.16666666666 0.16666666666
          -7.279177261e-13 -0.33333333332 4.2176283082e-13 -3.8336833708e-12 -0.33333333333 -4.3394647684e-12
          -8.1512574468e-13 3.7259388283e-13 -0.33333333332 -2.8167190802e-12 -5.022984524e-13 -2.6340596371e-12
          -1.6577295092e-12 1.3527915225e-12 0.33333333333 -2.8967106491e-12 -2.7598756613e-12 -4.0201208248e-13
          -4.4982073621e-12 -1.8410550862e-12 -5.7838978832e-12 -4.0860093087e-12 -4.4384526436e-12 -0.33333333333
          -4.7516435231e-12 -5.9911106024e-12 -1.7146839504e-12 -2.0896062658e-12 -2.6816050465e-12 0.33333333333
          -2.0078660956e-12 0.33333333333 1.4018044538e-12 -2.3094859358e-12 0.33333333333 -2.5762295942e-12
          -9.9114293162e-13 -0.16666666666 -0.16666666666 -2.1455986944e-13 -0.33333333333 2.4169555246e-13
          -1.9298575325e-12 -0.16666666666 0.16666666666 -2.9080687511e-13 2.5995872122e-13 -0.33333333333
          1.0730246986e-12 -3.2363001168e-14 -6.9777517098e-14 -9.9943382563e-15 -2.4349966488e-13 0.33333333333
          -2.0880380758e-12 0.16666666666 -0.16666666666 -2.6213796758e-13 0.33333333333 -2.6112445539e-13
          -1.2611574111e-12 0.16666666667 0.16666666667 -2.7865765251e-12 -0.33333333333 -6.816183902e-14
          -3.7043423884e-12 -0.33333333333 1.0009928541e-12 -2.8660684936e-12 2.944953309e-14 -0.33333333333
          -7.8506368073e-12 5.1991446088e-13 1.7833512445e-12 -6.3923033533e-12 -1.5796548097e-12 0.33333333333
          -7.9227180372e-12 1.9861057243e-12 3.2095582702e-13 -7.3123451738e-12 -9.6037067188e-13 -1.6754236345e-12
          -3.9339087543e-12 1.2068614337e-12 -0.33333333333 -7.5429107405e-12 -1.2483292937e-12 -1.164152108e-12
          -4.0268066659e-12 5.6437016518e-13 0.33333333333 -6.7113259394e-12 0.33333333333 -1.6778800571e-12
          -4.2268688549e-12 0.33333333333 3.4787841011e-13 8.470637386e-13 -0.16666666667 -0.16666666667
          1.6319145471e-12 -0.33333333334 2.7779722966e-12 -8.6638058923e-13 -0.16666666667 0.16666666667
          1.6030662041e-12 2.902345031e-12 -0.33333333334 4.6922656732e-12 1.8007817459e-12 1.5485945859e-12
          -3.2149928878e-12 3.4205971389e-13 0.33333333334 -9.2686275321e-13 0.16666666667 -0.16666666667
          -3.3121535029e-12 0.33333333334 2.2443158443e-13 -2.229142218e-12 0.16666666667 0.16666666667
          -3.3578972936e-12 -0.33333333335 1.3689846782e-13 -3.2159552799e-12 -0.33333333334 4.2717659922e-12
          -3.3429647939e-12 2.917614067e-13 -0.33333333335 -3.4423297546e-12 -8.0606810289e-13 3.7395364583e-12
          -3.2921165793e-12 5.3393910387e-13 0.33333333334 -3.4286185002e-12 4.0706882309e-12 -1.1214384456e-12
          -8.1493700677e-12 3.4584834996e-12 8.8851055961e-12 -3.1722957594e-12 4.596894046e-12 -0.33333333334
          -8.1059048362e-12 9.559752729e-12 3.1258051703e-12 -3.4897640333e-12 4.1411064031e-12 0.33333333334
          -3.2317482024e-12 0.33333333334 3.7871355357e-13 -3.4515723613e-12 0.33333333334 3.7989889012e-12
          8.5593207869e-13 -0.16666666667 -0.16666666667 1.53091732e-13 -0.33333333335 6.5286664963e-13
          1.881464819e-13 -0.16666666667 0.16666666667 2.0520000629e-13 7.5736639182e-13 -0.33333333335
          -3.6953307168e-13 3.4891811662e-12 3.2769897906e-12 -8.2826215504e-13 1.7962853427e-12 0.33333333335
          2.9441032945e-13 0.16666666667 -0.16666666667 -6.6070976815e-13 0.33333333335 1.6975032491e-12
          2.7003919933e-13 0.16666666667 0.16666666667 5.4837245855e-12 -0.33333333335 -1.4861776089e-12
          3.2726599208e-12 -0.33333333334 2.0378226558e-12 5.577871498e-12 -1.4268022527e-12 -0.33333333335
          6.0858262874e-12 -2.7418581186e-12 2.1287971386e-12 1.8622048348e-12 1.1581268713e-12 0.33333333334
          6.1714522381e-12 2.2495616481e-12 -2.8625067811e-12 5.3745341511e-12 3.6343705823e-12 6.5935194045e-12
          3.5446645619e-12 2.1627712642e-12 -0.33333333334 5.6482873934e-12 6.8528413738e-12 3.5134672949e-12
          2.4548418853e-12 2.4196507428e-12 0.33333333334 2.2407908862e-12 0.33333333334 1.0987647424e-12
          2.6934565689e-12 0.33333333334 2.2886744583e-12 2.7478314762e-12 -0.16666666667 -0.16666666667
          1.5175200506e-12 -0.33333333334 3.3420488599e-13 7.0859648444e-13 -0.16666666667 0.16666666667
          1.5956871241e-12 3.1555313917e-13 -0.33333333334 -3.7965397427e-12 9.0477625392e-13 9.4280139251e-13
          1.2858414962e-12 1.4330481246e-12 0.33333333334 8.6806256627e-13 0.16666666667 -0.16666666667
          1.5400679863e-12 0.33333333334 1.4516721158e-12 5.376294028e-13 0.16666666667 0.16666666667
          6.847522549e-12 -0.33333333334 1.0770036122e-12 4.8494819271e-12 -0.33333333333 -5.5711327478e-13
          6.9209082909e-12 9.8857987768e-13 -0.33333333334 9.906436782e-12 1.9519901103e-12 2.1174173526e-12
          4.8925030693e-12 1.1103672235e-13 0.33333333333 9.9718844293e-12 1.9127199824e-12 2.1318209784e-12
          8.7966023354e-12 4.542755061e-13 1.286633018e-13 5.0596193901e-12 -7.3859755118e-13 -0.33333333333
          9.0096263783e-12 -2.4791095826e-13 6.5969452123e-13 2.7391422464e-12 1.5927805407e-12 0.33333333333
          5.1859905259e-12 0.33333333333 1.9963414602e-13 2.9241331578e-12 0.33333333333 1.7842411576e-12
          1.8697309326e-12 -0.16666666667 -0.16666666667 2.0321298355e-12 -0.33333333333 5.2935433814e-13
          1.1135076693e-12 -0.16666666667 0.16666666667 2.0528656899e-12 4.1436298837e-13 -0.33333333333
          6.6334226523e-13 1.863370569e-12 2.0968782266e-12 1.4734567733e-13 8.3888451741e-13 0.33333333333
          1.1572826031e-12 0.16666666667 -0.16666666667 2.1859770938e-13 0.33333333333 9.4735330691e-13
          6.0116408379e-14 0.16666666666 0.16666666666 1.1009526624e-12 -0.33333333333 1.8677578473e-12
          -5.4298232577e-13 -0.33333333333 -1.0167741215e-12 1.0767498004e-12 1.7376208979e-12 -0.33333333333
          1.3042067426e-12 1.8855139889e-12 1.3620493622e-12 7.7179929114e-13 1.0598394991e-12 0.33333333333
          1.2781997683e-12 1.0681733276e-12 2.1498743541e-12 -6.1531335582e-13 6.0762506138e-13 -4.9222778631e-14
          -6.1697869036e-13 -1.2836433305e-12 -0.33333333333 -6.8919869811e-13 -6.0551027083e-13 9.0336071956e-13
          -2.8829716392e-13 -6.7122430661e-13 0.33333333333 6.7151839644e-13 0.33333333333 1.1899504819e-12
          -3.4935943027e-13 0.33333333333 -3.8908719996e-13 -2.8196585691e-13 -0.16666666666 -0.16666666666
          8.4744494408e-14 -0.33333333333 1.2287393325e-12 4.8590639975e-13 -0.16666666666 0.16666666666
          2.8595615459e-14 1.1493028751e-12 -0.33333333333 -1.6362620894e-12 1.466049504e-13 3.0836444509e-13
          5.8969094798e-13 -5.7287508071e-14 0.33333333333 3.7149103238e-13 0.16666666666 -0.16666666666
          4.1010901272e-13 0.33333333333 1.8596235662e-14 1.3753022159e-12 0.16666666666 0.16666666666
          -8.4496298847e-13 -0.33333333333 3.0526349135e-12 1.2854717291e-12 -0.33333333333 -2.5253428363e-12
          -9.3725027739e-13 3.0273461689e-12 -0.33333333333 -8.5506601799e-13 4.600420793e-12 4.846678614e-13
          -4.1655567884e-13 1.4080181248e-12 0.33333333332 -9.4219076985e-13 4.2721381988e-13 4.6505606983e-12
          -1.4937773241e-12 -1.0298428776e-12 -7.0334422965e-12 1.0171030684e-12 -2.5796855971e-12 -0.33333333333
          -1.7619794512e-12 -7.1448278609e-12 -9.7127861309e-13 4.4822479062e-13 -3.1218653422e-12 0.33333333333
          -7.867595464e-13 0.33333333333 1.4319608867e-12 2.1685431228e-13 0.33333333333 -3.0657160838e-12
          -2.697978993e-12 -0.16666666666 -0.16666666666 -7.291790869e-14 -0.33333333333 -1.1654566201e-13
          -5.2119864414e-13 -0.16666666666 0.16666666666 -1.4376607543e-13 -7.3857586713e-14 -0.33333333333
          5.1238322938e-12 -1.5792089858e-12 -1.6645851364e-12 -2.1185695342e-13 -1.5438206269e-12 0.33333333333
          -6.6433317181e-13 0.16666666666 -0.16666666666 -4.3824536014e-13 0.33333333333 -1.584232745e-12
          -2.1416332249e-13 0.16666666666 0.16666666666 -4.3308689968e-12 -0.33333333333 -2.9555538789e-12
          -6.1520233352e-13 -0.33333333333 8.7966179479e-13 -4.3855197251e-12 -2.8471118692e-12 -0.33333333333
          -1.5202838988e-12 -1.9163948857e-12 -1.5510925877e-12 3.5402236698e-13 1.5485242754e-12 0.33333333333
          -1.5738244041e-12 -1.3079259897e-12 -2.1334738446e-12 7.6735839905e-13 4.7406523151e-13 2.3497223047e-12
          -7.7815531796e-13 1.1001273677e-12 -0.33333333333 6.0568217108e-13 2.8102723057e-12 2.2812307598e-13