<VTKFile type="UnstructuredGrid" version="1.0" byte_order="LittleEndian" header_type="UInt64">
  <UnstructuredGrid>
    <Piece NumberOfPoints="95" NumberOfCells="94">
      <PointData>
      </PointData>
      <CellData Scalars="MaterialIDs">
	<DataArray type="Int32" Name="MaterialIDs" format="ascii">
	  0	0	0	0	0	0	0	0	0	0	0	0	1	1	1	1	1	1	1	1	1	1	1	1	1	1	1	1	1	1	1	1	1	1	1	1	1	1	1	1	1	1	1	1	1	1	1	1	1	1	1	1	1	1	1	1	1	1	1	1	1	1	1	1	1	1	1	1	1	1	1	1	1	1	1	1	1	1	1	1	1	1	2	2	2	2	2	2	2	2	2	2	2	2 
	</DataArray>
      </CellData>
      <Points>
        <DataArray type="Float64" Name="Points" NumberOfComponents="3" format="ascii" RangeMin="0" RangeMax="4.7">
          0 0 0 0.05 0 0
          0.1 0 0 0.15000000000000002 0 0
          0.2 0 0 0.25 0 0
          0.30000000000000004 0 0 0.35000000000000003 0 0
          0.4 0 0 0.45 0 0
          0.5 0 0 0.55 0 0
          0.6000000000000001 0 0 0.65 0 0
          0.7000000000000001 0 0 0.75 0 0
          0.8 0 0 0.8500000000000001 0 0
          0.9 0 0 0.9500000000000001 0 0
          1 0 0 1.05 0 0
          1.1 0 0 1.1500000000000001 0 0
          1.2000000000000002 0 0 1.25 0 0
          1.3 0 0 1.35 0 0
          1.4000000000000001 0 0 1.4500000000000002 0 0
          1.5 0 0 1.55 0 0
          1.6 0 0 1.6500000000000001 0 0
          1.7000000000000002 0 0 1.75 0 0
          1.8 0 0 1.85 0 0
          1.9000000000000001 0 0 1.9500000000000002 0 0
          2 0 0 2.0500000000000003 0 0
          2.1 0 0 2.15 0 0
          2.2 0 0 2.25 0 0
          2.3000000000000003 0 0 2.35 0 0
          2.4000000000000004 0 0 2.45 0 0
          2.5 0 0 2.5500000000000003 0 0
          2.6 0 0 2.6500000000000004 0 0
          2.7 0 0 2.75 0 0
          2.8000000000000003 0 0 2.85 0 0
          2.9000000000000004 0 0 2.95 0 0
          3 0 0 3.0500000000000003 0 0
          3.1 0 0 3.1500000000000004 0 0
          3.2 0 0 3.25 0 0
          3.3000000000000003 0 0 3.35 0 0
          3.4000000000000004 0 0 3.45 0 0
          3.5 0 0 3.5500000000000003 0 0
          3.6 0 0 3.6500000000000004 0 0
          3.7 0 0 3.75 0 0
          3.8000000000000003 0 0 3.85 0 0
          3.9000000000000004 0 0 3.95 0 0
          4 0 0 4.05 0 0
          4.1000000000000005 0 0 4.15 0 0
          4.2 0 0 4.25 0 0
          4.3 0 0 4.3500000000000005 0 0
          4.4 0 0 4.45 0 0
          4.5 0 0 4.55 0 0
          4.6000000000000005 0 0 4.65 0 0
          4.7 0 0
          <InformationKey name="L2_NORM_FINITE_RANGE" location="vtkDataArray" length="2">
            <Value index="0">
              0
            </Value>
            <Value index="1">
              4.7
            </Value>
          </InformationKey>
          <InformationKey name="L2_NORM_RANGE" location="vtkDataArray" length="2">
            <Value index="0">
              0
            </Value>
            <Value index="1">
              4.7
            </Value>
          </InformationKey>
        </DataArray>
      </Points>
      <Cells>
        <DataArray type="Int64" Name="connectivity" format="ascii" RangeMin="0" RangeMax="94">
          0 1 1 2 2 3
          3 4 4 5 5 6
          6 7 7 8 8 9
          9 10 10 11 11 12
          12 13 13 14 14 15
          15 16 16 17 17 18
          18 19 19 20 20 21
          21 22 22 23 23 24
          24 25 25 26 26 27
          27 28 28 29 29 30
          30 31 31 32 32 33
          33 34 34 35 35 36
          36 37 37 38 38 39
          39 40 40 41 41 42
          42 43 43 44 44 45
          45 46 46 47 47 48
          48 49 49 50 50 51
          51 52 52 53 53 54
          54 55 55 56 56 57
          57 58 58 59 59 60
          60 61 61 62 62 63
          63 64 64 65 65 66
          66 67 67 68 68 69
          69 70 70 71 71 72
          72 73 73 74 74 75
          75 76 76 77 77 78
          78 79 79 80 80 81
          81 82 82 83 83 84
          84 85 85 86 86 87
          87 88 88 89 89 90
          90 91 91 92 92 93
          93 94
        </DataArray>
        <DataArray type="Int64" Name="offsets" format="ascii" RangeMin="2" RangeMax="188">
          2 4 6 8 10 12
          14 16 18 20 22 24
          26 28 30 32 34 36
          38 40 42 44 46 48
          50 52 54 56 58 60
          62 64 66 68 70 72
          74 76 78 80 82 84
          86 88 90 92 94 96
          98 100 102 104 106 108
          110 112 114 116 118 120
          122 124 126 128 130 132
          134 136 138 140 142 144
          146 148 150 152 154 156
          158 160 162 164 166 168
          170 172 174 176 178 180
          182 184 186 188
        </DataArray>
        <DataArray type="UInt8" Name="types" format="ascii" RangeMin="3" RangeMax="3">
          3 3 3 3 3 3
          3 3 3 3 3 3
          3 3 3 3 3 3
          3 3 3 3 3 3
          3 3 3 3 3 3
          3 3 3 3 3 3
          3 3 3 3 3 3
          3 3 3 3 3 3
          3 3 3 3 3 3
          3 3 3 3 3 3
          3 3 3 3 3 3
          3 3 3 3 3 3
          3 3 3 3 3 3
          3 3 3 3 3 3
          3 3 3 3 3 3
          3 3 3 3
        </DataArray>
      </Cells>
    </Piece>
  </UnstructuredGrid>
</VTKFile>
